PSF EXT

      59 !NTITLE
 REMARKS original generated structure x-plor psf file
 REMARKS 44 patches were applied to the molecule.
 REMARKS topology /opt/CBv2.1.45/CBv2.1.45/structureFile/CHARMM_topology_file.txt 
 REMARKS topology /usr/local/lib/vmd/plugins/noarch/tcl/solvate1.7/wat.top 
 REMARKS topology /usr/local/lib/vmd/plugins/noarch/tcl/readcharmmtop1.2/toppar_water_ions_namd.str 
 REMARKS segment CARB { first NONE; last NONE; auto angles dihedrals }
 REMARKS segment WT1 { first NONE; last NONE; auto none  }
 REMARKS segment WT2 { first NONE; last NONE; auto none  }
 REMARKS segment WT3 { first NONE; last NONE; auto none  }
 REMARKS segment WT4 { first NONE; last NONE; auto none  }
 REMARKS segment WT5 { first NONE; last NONE; auto none  }
 REMARKS segment WT6 { first NONE; last NONE; auto none  }
 REMARKS segment WT7 { first NONE; last NONE; auto none  }
 REMARKS segment WT8 { first NONE; last NONE; auto none  }
 REMARKS segment ION { first NONE; last NONE; auto none  }
 REMARKS patch 14BB CARB:1  CARB:2  
 REMARKS patch 12AB CARB:2  CARB:3  
 REMARKS patch 13PB CARB:2  CARB:4  
 REMARKS patch 13BB CARB:1  CARB:5  
 REMARKS patch 14BB CARB:5  CARB:6  
 REMARKS patch 14BB CARB:6  CARB:7  
 REMARKS patch 12AB CARB:7  CARB:8  
 REMARKS patch 13PB CARB:7  CARB:9  
 REMARKS patch 13BB CARB:6  CARB:10  
 REMARKS patch 14BB CARB:10  CARB:11  
 REMARKS patch 14BB CARB:11  CARB:12  
 REMARKS patch 12AB CARB:12  CARB:13  
 REMARKS patch 13PB CARB:12  CARB:14  
 REMARKS patch 13BB CARB:11  CARB:15  
 REMARKS patch 14BB CARB:15  CARB:16  
 REMARKS patch 14BB CARB:16  CARB:17  
 REMARKS patch 12AB CARB:17  CARB:18  
 REMARKS patch 13PB CARB:17  CARB:19  
 REMARKS patch 13BB CARB:16  CARB:20  
 REMARKS patch 14BB CARB:20  CARB:21  
 REMARKS patch 14BB CARB:21  CARB:22  
 REMARKS patch 12AB CARB:22  CARB:23  
 REMARKS patch 13PB CARB:22  CARB:24  
 REMARKS patch 13BB CARB:21  CARB:25  
 REMARKS patch 14BB CARB:25  CARB:26  
 REMARKS patch 14BB CARB:26  CARB:27  
 REMARKS patch 12AB CARB:27  CARB:28  
 REMARKS patch 13PB CARB:27  CARB:29  
 REMARKS patch 13BB CARB:26  CARB:30  
 REMARKS patch 14BB CARB:30  CARB:31  
 REMARKS patch 14BB CARB:31  CARB:32  
 REMARKS patch 12AB CARB:32  CARB:33  
 REMARKS patch 13PB CARB:32  CARB:34  
 REMARKS patch 13BB CARB:31  CARB:35  
 REMARKS patch 14BB CARB:35  CARB:36  
 REMARKS patch 14BB CARB:36  CARB:37  
 REMARKS patch 12AB CARB:37  CARB:38  
 REMARKS patch 13PB CARB:37  CARB:39  
 REMARKS patch 13BB CARB:36  CARB:40  
 REMARKS patch 14BB CARB:40  CARB:41  
 REMARKS patch 14BB CARB:41  CARB:42  
 REMARKS patch 12AB CARB:42  CARB:43  
 REMARKS patch 13PB CARB:42  CARB:44  
 REMARKS patch 13BB CARB:41  CARB:45  

   70698 !NATOM
         1 CARB     1        BRHM     C1       CC3162   0.340000       12.0110           0
         2 CARB     1        BRHM     H1       HCA1     0.090000        1.0080           0
         3 CARB     1        BRHM     O1       OC311   -0.650000       15.9994           0
         4 CARB     1        BRHM     HO1      HCP1     0.420000        1.0080           0
         5 CARB     1        BRHM     C5       CC3163   0.110000       12.0110           0
         6 CARB     1        BRHM     H5       HCA1     0.090000        1.0080           0
         7 CARB     1        BRHM     O5       OC3C61  -0.400000       15.9994           0
         8 CARB     1        BRHM     C2       CC3161   0.140000       12.0110           0
         9 CARB     1        BRHM     H2       HCA1     0.090000        1.0080           0
        10 CARB     1        BRHM     O2       OC311   -0.650000       15.9994           0
        11 CARB     1        BRHM     HO2      HCP1     0.420000        1.0080           0
        12 CARB     1        BRHM     C3       CC3161   0.090000       12.0110           0
        13 CARB     1        BRHM     H3       HCA1     0.090000        1.0080           0
        14 CARB     1        BRHM     O3       OC301   -0.360000       15.9994           0
        15 CARB     1        BRHM     C4       CC3161   0.090000       12.0110           0
        16 CARB     1        BRHM     H4       HCA1     0.090000        1.0080           0
        17 CARB     1        BRHM     O4       OC301   -0.360000       15.9994           0
        18 CARB     1        BRHM     C6       CC331   -0.270000       12.0110           0
        19 CARB     1        BRHM     H61      HCA3     0.090000        1.0080           0
        20 CARB     1        BRHM     H62      HCA3     0.090000        1.0080           0
        21 CARB     1        BRHM     H63      HCA3     0.090000        1.0080           0
        22 CARB     2        BGAL     C1       CC3162   0.290000       12.0110           0
        23 CARB     2        BGAL     H1       HCA1     0.090000        1.0080           0
        24 CARB     2        BGAL     C5       CC3163   0.110000       12.0110           0
        25 CARB     2        BGAL     H5       HCA1     0.090000        1.0080           0
        26 CARB     2        BGAL     O5       OC3C61  -0.400000       15.9994           0
        27 CARB     2        BGAL     C2       CC3161   0.090000       12.0110           0
        28 CARB     2        BGAL     H2       HCA1     0.090000        1.0080           0
        29 CARB     2        BGAL     O2       OC301   -0.360000       15.9994           0
        30 CARB     2        BGAL     C3       CC3161   0.140000       12.0110           0
        31 CARB     2        BGAL     H3       HCA1     0.090000        1.0080           0
        32 CARB     2        BGAL     O3       OC30P   -0.570000       15.9994           0
        33 CARB     2        BGAL     C4       CC3161   0.140000       12.0110           0
        34 CARB     2        BGAL     H4       HCA1     0.090000        1.0080           0
        35 CARB     2        BGAL     O4       OC311   -0.650000       15.9994           0
        36 CARB     2        BGAL     HO4      HCP1     0.420000        1.0080           0
        37 CARB     2        BGAL     C6       CC321    0.050000       12.0110           0
        38 CARB     2        BGAL     H61      HCA2     0.090000        1.0080           0
        39 CARB     2        BGAL     H62      HCA2     0.090000        1.0080           0
        40 CARB     2        BGAL     O6       OC311   -0.650000       15.9994           0
        41 CARB     2        BGAL     HO6      HCP1     0.420000        1.0080           0
        42 CARB     3        ARHM     C1       CC3162   0.290000       12.0110           0
        43 CARB     3        ARHM     H1       HCA1     0.090000        1.0080           0
        44 CARB     3        ARHM     C5       CC3163   0.110000       12.0110           0
        45 CARB     3        ARHM     H5       HCA1     0.090000        1.0080           0
        46 CARB     3        ARHM     O5       OC3C61  -0.400000       15.9994           0
        47 CARB     3        ARHM     C2       CC3161   0.140000       12.0110           0
        48 CARB     3        ARHM     H2       HCA1     0.090000        1.0080           0
        49 CARB     3        ARHM     O2       OC311   -0.650000       15.9994           0
        50 CARB     3        ARHM     HO2      HCP1     0.420000        1.0080           0
        51 CARB     3        ARHM     C3       CC3161   0.140000       12.0110           0
        52 CARB     3        ARHM     H3       HCA1     0.090000        1.0080           0
        53 CARB     3        ARHM     O3       OC311   -0.650000       15.9994           0
        54 CARB     3        ARHM     HO3      HCP1     0.420000        1.0080           0
        55 CARB     3        ARHM     C4       CC3161   0.140000       12.0110           0
        56 CARB     3        ARHM     H4       HCA1     0.090000        1.0080           0
        57 CARB     3        ARHM     O4       OC311   -0.650000       15.9994           0
        58 CARB     3        ARHM     HO4      HCP1     0.420000        1.0080           0
        59 CARB     3        ARHM     C6       CC331   -0.270000       12.0110           0
        60 CARB     3        ARHM     H61      HCA3     0.090000        1.0080           0
        61 CARB     3        ARHM     H62      HCA3     0.090000        1.0080           0
        62 CARB     3        ARHM     H63      HCA3     0.090000        1.0080           0
        63 CARB     4        G2P      C1       CC322    0.050000       12.0110           0
        64 CARB     4        G2P      H11      HCA2     0.090000        1.0080           0
        65 CARB     4        G2P      H12      HCA2     0.090000        1.0080           0
        66 CARB     4        G2P      O1       OC311   -0.650000       15.9994           0
        67 CARB     4        G2P      HO1      HCP1     0.420000        1.0080           0
        68 CARB     4        G2P      C2       CC312    0.140000       12.0110           0
        69 CARB     4        G2P      H2       HCA1     0.090000        1.0080           0
        70 CARB     4        G2P      O2       OC30P   -0.750000       15.9994           0
        71 CARB     4        G2P      P1       PC       1.500000       30.9740           0
        72 CARB     4        G2P      OP3      OC2DP   -0.820000       15.9994           0
        73 CARB     4        G2P      OP4      OC2DP   -0.820000       15.9994           0
        74 CARB     4        G2P      C3       CC322    0.050000       12.0110           0
        75 CARB     4        G2P      H31      HCA2     0.090000        1.0080           0
        76 CARB     4        G2P      H32      HCA2     0.090000        1.0080           0
        77 CARB     4        G2P      O3       OC311   -0.650000       15.9994           0
        78 CARB     4        G2P      HO3      HCP1     0.420000        1.0080           0
        79 CARB     5        BGLC     C1       CC3162   0.290000       12.0110           0
        80 CARB     5        BGLC     H1       HCA1     0.090000        1.0080           0
        81 CARB     5        BGLC     C5       CC3163   0.110000       12.0110           0
        82 CARB     5        BGLC     H5       HCA1     0.090000        1.0080           0
        83 CARB     5        BGLC     O5       OC3C61  -0.400000       15.9994           0
        84 CARB     5        BGLC     C2       CC3161   0.140000       12.0110           0
        85 CARB     5        BGLC     H2       HCA1     0.090000        1.0080           0
        86 CARB     5        BGLC     O2       OC311   -0.650000       15.9994           0
        87 CARB     5        BGLC     HO2      HCP1     0.420000        1.0080           0
        88 CARB     5        BGLC     C3       CC3161   0.140000       12.0110           0
        89 CARB     5        BGLC     H3       HCA1     0.090000        1.0080           0
        90 CARB     5        BGLC     O3       OC311   -0.650000       15.9994           0
        91 CARB     5        BGLC     HO3      HCP1     0.420000        1.0080           0
        92 CARB     5        BGLC     C4       CC3161   0.090000       12.0110           0
        93 CARB     5        BGLC     H4       HCA1     0.090000        1.0080           0
        94 CARB     5        BGLC     O4       OC301   -0.360000       15.9994           0
        95 CARB     5        BGLC     C6       CC321    0.050000       12.0110           0
        96 CARB     5        BGLC     H61      HCA2     0.090000        1.0080           0
        97 CARB     5        BGLC     H62      HCA2     0.090000        1.0080           0
        98 CARB     5        BGLC     O6       OC311   -0.650000       15.9994           0
        99 CARB     5        BGLC     HO6      HCP1     0.420000        1.0080           0
       100 CARB     6        BRHM     C1       CC3162   0.290000       12.0110           0
       101 CARB     6        BRHM     H1       HCA1     0.090000        1.0080           0
       102 CARB     6        BRHM     C5       CC3163   0.110000       12.0110           0
       103 CARB     6        BRHM     H5       HCA1     0.090000        1.0080           0
       104 CARB     6        BRHM     O5       OC3C61  -0.400000       15.9994           0
       105 CARB     6        BRHM     C2       CC3161   0.140000       12.0110           0
       106 CARB     6        BRHM     H2       HCA1     0.090000        1.0080           0
       107 CARB     6        BRHM     O2       OC311   -0.650000       15.9994           0
       108 CARB     6        BRHM     HO2      HCP1     0.420000        1.0080           0
       109 CARB     6        BRHM     C3       CC3161   0.090000       12.0110           0
       110 CARB     6        BRHM     H3       HCA1     0.090000        1.0080           0
       111 CARB     6        BRHM     O3       OC301   -0.360000       15.9994           0
       112 CARB     6        BRHM     C4       CC3161   0.090000       12.0110           0
       113 CARB     6        BRHM     H4       HCA1     0.090000        1.0080           0
       114 CARB     6        BRHM     O4       OC301   -0.360000       15.9994           0
       115 CARB     6        BRHM     C6       CC331   -0.270000       12.0110           0
       116 CARB     6        BRHM     H61      HCA3     0.090000        1.0080           0
       117 CARB     6        BRHM     H62      HCA3     0.090000        1.0080           0
       118 CARB     6        BRHM     H63      HCA3     0.090000        1.0080           0
       119 CARB     7        BGAL     C1       CC3162   0.290000       12.0110           0
       120 CARB     7        BGAL     H1       HCA1     0.090000        1.0080           0
       121 CARB     7        BGAL     C5       CC3163   0.110000       12.0110           0
       122 CARB     7        BGAL     H5       HCA1     0.090000        1.0080           0
       123 CARB     7        BGAL     O5       OC3C61  -0.400000       15.9994           0
       124 CARB     7        BGAL     C2       CC3161   0.090000       12.0110           0
       125 CARB     7        BGAL     H2       HCA1     0.090000        1.0080           0
       126 CARB     7        BGAL     O2       OC301   -0.360000       15.9994           0
       127 CARB     7        BGAL     C3       CC3161   0.140000       12.0110           0
       128 CARB     7        BGAL     H3       HCA1     0.090000        1.0080           0
       129 CARB     7        BGAL     O3       OC30P   -0.570000       15.9994           0
       130 CARB     7        BGAL     C4       CC3161   0.140000       12.0110           0
       131 CARB     7        BGAL     H4       HCA1     0.090000        1.0080           0
       132 CARB     7        BGAL     O4       OC311   -0.650000       15.9994           0
       133 CARB     7        BGAL     HO4      HCP1     0.420000        1.0080           0
       134 CARB     7        BGAL     C6       CC321    0.050000       12.0110           0
       135 CARB     7        BGAL     H61      HCA2     0.090000        1.0080           0
       136 CARB     7        BGAL     H62      HCA2     0.090000        1.0080           0
       137 CARB     7        BGAL     O6       OC311   -0.650000       15.9994           0
       138 CARB     7        BGAL     HO6      HCP1     0.420000        1.0080           0
       139 CARB     8        ARHM     C1       CC3162   0.290000       12.0110           0
       140 CARB     8        ARHM     H1       HCA1     0.090000        1.0080           0
       141 CARB     8        ARHM     C5       CC3163   0.110000       12.0110           0
       142 CARB     8        ARHM     H5       HCA1     0.090000        1.0080           0
       143 CARB     8        ARHM     O5       OC3C61  -0.400000       15.9994           0
       144 CARB     8        ARHM     C2       CC3161   0.140000       12.0110           0
       145 CARB     8        ARHM     H2       HCA1     0.090000        1.0080           0
       146 CARB     8        ARHM     O2       OC311   -0.650000       15.9994           0
       147 CARB     8        ARHM     HO2      HCP1     0.420000        1.0080           0
       148 CARB     8        ARHM     C3       CC3161   0.140000       12.0110           0
       149 CARB     8        ARHM     H3       HCA1     0.090000        1.0080           0
       150 CARB     8        ARHM     O3       OC311   -0.650000       15.9994           0
       151 CARB     8        ARHM     HO3      HCP1     0.420000        1.0080           0
       152 CARB     8        ARHM     C4       CC3161   0.140000       12.0110           0
       153 CARB     8        ARHM     H4       HCA1     0.090000        1.0080           0
       154 CARB     8        ARHM     O4       OC311   -0.650000       15.9994           0
       155 CARB     8        ARHM     HO4      HCP1     0.420000        1.0080           0
       156 CARB     8        ARHM     C6       CC331   -0.270000       12.0110           0
       157 CARB     8        ARHM     H61      HCA3     0.090000        1.0080           0
       158 CARB     8        ARHM     H62      HCA3     0.090000        1.0080           0
       159 CARB     8        ARHM     H63      HCA3     0.090000        1.0080           0
       160 CARB     9        G2P      C1       CC322    0.050000       12.0110           0
       161 CARB     9        G2P      H11      HCA2     0.090000        1.0080           0
       162 CARB     9        G2P      H12      HCA2     0.090000        1.0080           0
       163 CARB     9        G2P      O1       OC311   -0.650000       15.9994           0
       164 CARB     9        G2P      HO1      HCP1     0.420000        1.0080           0
       165 CARB     9        G2P      C2       CC312    0.140000       12.0110           0
       166 CARB     9        G2P      H2       HCA1     0.090000        1.0080           0
       167 CARB     9        G2P      O2       OC30P   -0.750000       15.9994           0
       168 CARB     9        G2P      P1       PC       1.500000       30.9740           0
       169 CARB     9        G2P      OP3      OC2DP   -0.820000       15.9994           0
       170 CARB     9        G2P      OP4      OC2DP   -0.820000       15.9994           0
       171 CARB     9        G2P      C3       CC322    0.050000       12.0110           0
       172 CARB     9        G2P      H31      HCA2     0.090000        1.0080           0
       173 CARB     9        G2P      H32      HCA2     0.090000        1.0080           0
       174 CARB     9        G2P      O3       OC311   -0.650000       15.9994           0
       175 CARB     9        G2P      HO3      HCP1     0.420000        1.0080           0
       176 CARB     10       BGLC     C1       CC3162   0.290000       12.0110           0
       177 CARB     10       BGLC     H1       HCA1     0.090000        1.0080           0
       178 CARB     10       BGLC     C5       CC3163   0.110000       12.0110           0
       179 CARB     10       BGLC     H5       HCA1     0.090000        1.0080           0
       180 CARB     10       BGLC     O5       OC3C61  -0.400000       15.9994           0
       181 CARB     10       BGLC     C2       CC3161   0.140000       12.0110           0
       182 CARB     10       BGLC     H2       HCA1     0.090000        1.0080           0
       183 CARB     10       BGLC     O2       OC311   -0.650000       15.9994           0
       184 CARB     10       BGLC     HO2      HCP1     0.420000        1.0080           0
       185 CARB     10       BGLC     C3       CC3161   0.140000       12.0110           0
       186 CARB     10       BGLC     H3       HCA1     0.090000        1.0080           0
       187 CARB     10       BGLC     O3       OC311   -0.650000       15.9994           0
       188 CARB     10       BGLC     HO3      HCP1     0.420000        1.0080           0
       189 CARB     10       BGLC     C4       CC3161   0.090000       12.0110           0
       190 CARB     10       BGLC     H4       HCA1     0.090000        1.0080           0
       191 CARB     10       BGLC     O4       OC301   -0.360000       15.9994           0
       192 CARB     10       BGLC     C6       CC321    0.050000       12.0110           0
       193 CARB     10       BGLC     H61      HCA2     0.090000        1.0080           0
       194 CARB     10       BGLC     H62      HCA2     0.090000        1.0080           0
       195 CARB     10       BGLC     O6       OC311   -0.650000       15.9994           0
       196 CARB     10       BGLC     HO6      HCP1     0.420000        1.0080           0
       197 CARB     11       BRHM     C1       CC3162   0.290000       12.0110           0
       198 CARB     11       BRHM     H1       HCA1     0.090000        1.0080           0
       199 CARB     11       BRHM     C5       CC3163   0.110000       12.0110           0
       200 CARB     11       BRHM     H5       HCA1     0.090000        1.0080           0
       201 CARB     11       BRHM     O5       OC3C61  -0.400000       15.9994           0
       202 CARB     11       BRHM     C2       CC3161   0.140000       12.0110           0
       203 CARB     11       BRHM     H2       HCA1     0.090000        1.0080           0
       204 CARB     11       BRHM     O2       OC311   -0.650000       15.9994           0
       205 CARB     11       BRHM     HO2      HCP1     0.420000        1.0080           0
       206 CARB     11       BRHM     C3       CC3161   0.090000       12.0110           0
       207 CARB     11       BRHM     H3       HCA1     0.090000        1.0080           0
       208 CARB     11       BRHM     O3       OC301   -0.360000       15.9994           0
       209 CARB     11       BRHM     C4       CC3161   0.090000       12.0110           0
       210 CARB     11       BRHM     H4       HCA1     0.090000        1.0080           0
       211 CARB     11       BRHM     O4       OC301   -0.360000       15.9994           0
       212 CARB     11       BRHM     C6       CC331   -0.270000       12.0110           0
       213 CARB     11       BRHM     H61      HCA3     0.090000        1.0080           0
       214 CARB     11       BRHM     H62      HCA3     0.090000        1.0080           0
       215 CARB     11       BRHM     H63      HCA3     0.090000        1.0080           0
       216 CARB     12       BGAL     C1       CC3162   0.290000       12.0110           0
       217 CARB     12       BGAL     H1       HCA1     0.090000        1.0080           0
       218 CARB     12       BGAL     C5       CC3163   0.110000       12.0110           0
       219 CARB     12       BGAL     H5       HCA1     0.090000        1.0080           0
       220 CARB     12       BGAL     O5       OC3C61  -0.400000       15.9994           0
       221 CARB     12       BGAL     C2       CC3161   0.090000       12.0110           0
       222 CARB     12       BGAL     H2       HCA1     0.090000        1.0080           0
       223 CARB     12       BGAL     O2       OC301   -0.360000       15.9994           0
       224 CARB     12       BGAL     C3       CC3161   0.140000       12.0110           0
       225 CARB     12       BGAL     H3       HCA1     0.090000        1.0080           0
       226 CARB     12       BGAL     O3       OC30P   -0.570000       15.9994           0
       227 CARB     12       BGAL     C4       CC3161   0.140000       12.0110           0
       228 CARB     12       BGAL     H4       HCA1     0.090000        1.0080           0
       229 CARB     12       BGAL     O4       OC311   -0.650000       15.9994           0
       230 CARB     12       BGAL     HO4      HCP1     0.420000        1.0080           0
       231 CARB     12       BGAL     C6       CC321    0.050000       12.0110           0
       232 CARB     12       BGAL     H61      HCA2     0.090000        1.0080           0
       233 CARB     12       BGAL     H62      HCA2     0.090000        1.0080           0
       234 CARB     12       BGAL     O6       OC311   -0.650000       15.9994           0
       235 CARB     12       BGAL     HO6      HCP1     0.420000        1.0080           0
       236 CARB     13       ARHM     C1       CC3162   0.290000       12.0110           0
       237 CARB     13       ARHM     H1       HCA1     0.090000        1.0080           0
       238 CARB     13       ARHM     C5       CC3163   0.110000       12.0110           0
       239 CARB     13       ARHM     H5       HCA1     0.090000        1.0080           0
       240 CARB     13       ARHM     O5       OC3C61  -0.400000       15.9994           0
       241 CARB     13       ARHM     C2       CC3161   0.140000       12.0110           0
       242 CARB     13       ARHM     H2       HCA1     0.090000        1.0080           0
       243 CARB     13       ARHM     O2       OC311   -0.650000       15.9994           0
       244 CARB     13       ARHM     HO2      HCP1     0.420000        1.0080           0
       245 CARB     13       ARHM     C3       CC3161   0.140000       12.0110           0
       246 CARB     13       ARHM     H3       HCA1     0.090000        1.0080           0
       247 CARB     13       ARHM     O3       OC311   -0.650000       15.9994           0
       248 CARB     13       ARHM     HO3      HCP1     0.420000        1.0080           0
       249 CARB     13       ARHM     C4       CC3161   0.140000       12.0110           0
       250 CARB     13       ARHM     H4       HCA1     0.090000        1.0080           0
       251 CARB     13       ARHM     O4       OC311   -0.650000       15.9994           0
       252 CARB     13       ARHM     HO4      HCP1     0.420000        1.0080           0
       253 CARB     13       ARHM     C6       CC331   -0.270000       12.0110           0
       254 CARB     13       ARHM     H61      HCA3     0.090000        1.0080           0
       255 CARB     13       ARHM     H62      HCA3     0.090000        1.0080           0
       256 CARB     13       ARHM     H63      HCA3     0.090000        1.0080           0
       257 CARB     14       G2P      C1       CC322    0.050000       12.0110           0
       258 CARB     14       G2P      H11      HCA2     0.090000        1.0080           0
       259 CARB     14       G2P      H12      HCA2     0.090000        1.0080           0
       260 CARB     14       G2P      O1       OC311   -0.650000       15.9994           0
       261 CARB     14       G2P      HO1      HCP1     0.420000        1.0080           0
       262 CARB     14       G2P      C2       CC312    0.140000       12.0110           0
       263 CARB     14       G2P      H2       HCA1     0.090000        1.0080           0
       264 CARB     14       G2P      O2       OC30P   -0.750000       15.9994           0
       265 CARB     14       G2P      P1       PC       1.500000       30.9740           0
       266 CARB     14       G2P      OP3      OC2DP   -0.820000       15.9994           0
       267 CARB     14       G2P      OP4      OC2DP   -0.820000       15.9994           0
       268 CARB     14       G2P      C3       CC322    0.050000       12.0110           0
       269 CARB     14       G2P      H31      HCA2     0.090000        1.0080           0
       270 CARB     14       G2P      H32      HCA2     0.090000        1.0080           0
       271 CARB     14       G2P      O3       OC311   -0.650000       15.9994           0
       272 CARB     14       G2P      HO3      HCP1     0.420000        1.0080           0
       273 CARB     15       BGLC     C1       CC3162   0.290000       12.0110           0
       274 CARB     15       BGLC     H1       HCA1     0.090000        1.0080           0
       275 CARB     15       BGLC     C5       CC3163   0.110000       12.0110           0
       276 CARB     15       BGLC     H5       HCA1     0.090000        1.0080           0
       277 CARB     15       BGLC     O5       OC3C61  -0.400000       15.9994           0
       278 CARB     15       BGLC     C2       CC3161   0.140000       12.0110           0
       279 CARB     15       BGLC     H2       HCA1     0.090000        1.0080           0
       280 CARB     15       BGLC     O2       OC311   -0.650000       15.9994           0
       281 CARB     15       BGLC     HO2      HCP1     0.420000        1.0080           0
       282 CARB     15       BGLC     C3       CC3161   0.140000       12.0110           0
       283 CARB     15       BGLC     H3       HCA1     0.090000        1.0080           0
       284 CARB     15       BGLC     O3       OC311   -0.650000       15.9994           0
       285 CARB     15       BGLC     HO3      HCP1     0.420000        1.0080           0
       286 CARB     15       BGLC     C4       CC3161   0.090000       12.0110           0
       287 CARB     15       BGLC     H4       HCA1     0.090000        1.0080           0
       288 CARB     15       BGLC     O4       OC301   -0.360000       15.9994           0
       289 CARB     15       BGLC     C6       CC321    0.050000       12.0110           0
       290 CARB     15       BGLC     H61      HCA2     0.090000        1.0080           0
       291 CARB     15       BGLC     H62      HCA2     0.090000        1.0080           0
       292 CARB     15       BGLC     O6       OC311   -0.650000       15.9994           0
       293 CARB     15       BGLC     HO6      HCP1     0.420000        1.0080           0
       294 CARB     16       BRHM     C1       CC3162   0.290000       12.0110           0
       295 CARB     16       BRHM     H1       HCA1     0.090000        1.0080           0
       296 CARB     16       BRHM     C5       CC3163   0.110000       12.0110           0
       297 CARB     16       BRHM     H5       HCA1     0.090000        1.0080           0
       298 CARB     16       BRHM     O5       OC3C61  -0.400000       15.9994           0
       299 CARB     16       BRHM     C2       CC3161   0.140000       12.0110           0
       300 CARB     16       BRHM     H2       HCA1     0.090000        1.0080           0
       301 CARB     16       BRHM     O2       OC311   -0.650000       15.9994           0
       302 CARB     16       BRHM     HO2      HCP1     0.420000        1.0080           0
       303 CARB     16       BRHM     C3       CC3161   0.090000       12.0110           0
       304 CARB     16       BRHM     H3       HCA1     0.090000        1.0080           0
       305 CARB     16       BRHM     O3       OC301   -0.360000       15.9994           0
       306 CARB     16       BRHM     C4       CC3161   0.090000       12.0110           0
       307 CARB     16       BRHM     H4       HCA1     0.090000        1.0080           0
       308 CARB     16       BRHM     O4       OC301   -0.360000       15.9994           0
       309 CARB     16       BRHM     C6       CC331   -0.270000       12.0110           0
       310 CARB     16       BRHM     H61      HCA3     0.090000        1.0080           0
       311 CARB     16       BRHM     H62      HCA3     0.090000        1.0080           0
       312 CARB     16       BRHM     H63      HCA3     0.090000        1.0080           0
       313 CARB     17       BGAL     C1       CC3162   0.290000       12.0110           0
       314 CARB     17       BGAL     H1       HCA1     0.090000        1.0080           0
       315 CARB     17       BGAL     C5       CC3163   0.110000       12.0110           0
       316 CARB     17       BGAL     H5       HCA1     0.090000        1.0080           0
       317 CARB     17       BGAL     O5       OC3C61  -0.400000       15.9994           0
       318 CARB     17       BGAL     C2       CC3161   0.090000       12.0110           0
       319 CARB     17       BGAL     H2       HCA1     0.090000        1.0080           0
       320 CARB     17       BGAL     O2       OC301   -0.360000       15.9994           0
       321 CARB     17       BGAL     C3       CC3161   0.140000       12.0110           0
       322 CARB     17       BGAL     H3       HCA1     0.090000        1.0080           0
       323 CARB     17       BGAL     O3       OC30P   -0.570000       15.9994           0
       324 CARB     17       BGAL     C4       CC3161   0.140000       12.0110           0
       325 CARB     17       BGAL     H4       HCA1     0.090000        1.0080           0
       326 CARB     17       BGAL     O4       OC311   -0.650000       15.9994           0
       327 CARB     17       BGAL     HO4      HCP1     0.420000        1.0080           0
       328 CARB     17       BGAL     C6       CC321    0.050000       12.0110           0
       329 CARB     17       BGAL     H61      HCA2     0.090000        1.0080           0
       330 CARB     17       BGAL     H62      HCA2     0.090000        1.0080           0
       331 CARB     17       BGAL     O6       OC311   -0.650000       15.9994           0
       332 CARB     17       BGAL     HO6      HCP1     0.420000        1.0080           0
       333 CARB     18       ARHM     C1       CC3162   0.290000       12.0110           0
       334 CARB     18       ARHM     H1       HCA1     0.090000        1.0080           0
       335 CARB     18       ARHM     C5       CC3163   0.110000       12.0110           0
       336 CARB     18       ARHM     H5       HCA1     0.090000        1.0080           0
       337 CARB     18       ARHM     O5       OC3C61  -0.400000       15.9994           0
       338 CARB     18       ARHM     C2       CC3161   0.140000       12.0110           0
       339 CARB     18       ARHM     H2       HCA1     0.090000        1.0080           0
       340 CARB     18       ARHM     O2       OC311   -0.650000       15.9994           0
       341 CARB     18       ARHM     HO2      HCP1     0.420000        1.0080           0
       342 CARB     18       ARHM     C3       CC3161   0.140000       12.0110           0
       343 CARB     18       ARHM     H3       HCA1     0.090000        1.0080           0
       344 CARB     18       ARHM     O3       OC311   -0.650000       15.9994           0
       345 CARB     18       ARHM     HO3      HCP1     0.420000        1.0080           0
       346 CARB     18       ARHM     C4       CC3161   0.140000       12.0110           0
       347 CARB     18       ARHM     H4       HCA1     0.090000        1.0080           0
       348 CARB     18       ARHM     O4       OC311   -0.650000       15.9994           0
       349 CARB     18       ARHM     HO4      HCP1     0.420000        1.0080           0
       350 CARB     18       ARHM     C6       CC331   -0.270000       12.0110           0
       351 CARB     18       ARHM     H61      HCA3     0.090000        1.0080           0
       352 CARB     18       ARHM     H62      HCA3     0.090000        1.0080           0
       353 CARB     18       ARHM     H63      HCA3     0.090000        1.0080           0
       354 CARB     19       G2P      C1       CC322    0.050000       12.0110           0
       355 CARB     19       G2P      H11      HCA2     0.090000        1.0080           0
       356 CARB     19       G2P      H12      HCA2     0.090000        1.0080           0
       357 CARB     19       G2P      O1       OC311   -0.650000       15.9994           0
       358 CARB     19       G2P      HO1      HCP1     0.420000        1.0080           0
       359 CARB     19       G2P      C2       CC312    0.140000       12.0110           0
       360 CARB     19       G2P      H2       HCA1     0.090000        1.0080           0
       361 CARB     19       G2P      O2       OC30P   -0.750000       15.9994           0
       362 CARB     19       G2P      P1       PC       1.500000       30.9740           0
       363 CARB     19       G2P      OP3      OC2DP   -0.820000       15.9994           0
       364 CARB     19       G2P      OP4      OC2DP   -0.820000       15.9994           0
       365 CARB     19       G2P      C3       CC322    0.050000       12.0110           0
       366 CARB     19       G2P      H31      HCA2     0.090000        1.0080           0
       367 CARB     19       G2P      H32      HCA2     0.090000        1.0080           0
       368 CARB     19       G2P      O3       OC311   -0.650000       15.9994           0
       369 CARB     19       G2P      HO3      HCP1     0.420000        1.0080           0
       370 CARB     20       BGLC     C1       CC3162   0.290000       12.0110           0
       371 CARB     20       BGLC     H1       HCA1     0.090000        1.0080           0
       372 CARB     20       BGLC     C5       CC3163   0.110000       12.0110           0
       373 CARB     20       BGLC     H5       HCA1     0.090000        1.0080           0
       374 CARB     20       BGLC     O5       OC3C61  -0.400000       15.9994           0
       375 CARB     20       BGLC     C2       CC3161   0.140000       12.0110           0
       376 CARB     20       BGLC     H2       HCA1     0.090000        1.0080           0
       377 CARB     20       BGLC     O2       OC311   -0.650000       15.9994           0
       378 CARB     20       BGLC     HO2      HCP1     0.420000        1.0080           0
       379 CARB     20       BGLC     C3       CC3161   0.140000       12.0110           0
       380 CARB     20       BGLC     H3       HCA1     0.090000        1.0080           0
       381 CARB     20       BGLC     O3       OC311   -0.650000       15.9994           0
       382 CARB     20       BGLC     HO3      HCP1     0.420000        1.0080           0
       383 CARB     20       BGLC     C4       CC3161   0.090000       12.0110           0
       384 CARB     20       BGLC     H4       HCA1     0.090000        1.0080           0
       385 CARB     20       BGLC     O4       OC301   -0.360000       15.9994           0
       386 CARB     20       BGLC     C6       CC321    0.050000       12.0110           0
       387 CARB     20       BGLC     H61      HCA2     0.090000        1.0080           0
       388 CARB     20       BGLC     H62      HCA2     0.090000        1.0080           0
       389 CARB     20       BGLC     O6       OC311   -0.650000       15.9994           0
       390 CARB     20       BGLC     HO6      HCP1     0.420000        1.0080           0
       391 CARB     21       BRHM     C1       CC3162   0.290000       12.0110           0
       392 CARB     21       BRHM     H1       HCA1     0.090000        1.0080           0
       393 CARB     21       BRHM     C5       CC3163   0.110000       12.0110           0
       394 CARB     21       BRHM     H5       HCA1     0.090000        1.0080           0
       395 CARB     21       BRHM     O5       OC3C61  -0.400000       15.9994           0
       396 CARB     21       BRHM     C2       CC3161   0.140000       12.0110           0
       397 CARB     21       BRHM     H2       HCA1     0.090000        1.0080           0
       398 CARB     21       BRHM     O2       OC311   -0.650000       15.9994           0
       399 CARB     21       BRHM     HO2      HCP1     0.420000        1.0080           0
       400 CARB     21       BRHM     C3       CC3161   0.090000       12.0110           0
       401 CARB     21       BRHM     H3       HCA1     0.090000        1.0080           0
       402 CARB     21       BRHM     O3       OC301   -0.360000       15.9994           0
       403 CARB     21       BRHM     C4       CC3161   0.090000       12.0110           0
       404 CARB     21       BRHM     H4       HCA1     0.090000        1.0080           0
       405 CARB     21       BRHM     O4       OC301   -0.360000       15.9994           0
       406 CARB     21       BRHM     C6       CC331   -0.270000       12.0110           0
       407 CARB     21       BRHM     H61      HCA3     0.090000        1.0080           0
       408 CARB     21       BRHM     H62      HCA3     0.090000        1.0080           0
       409 CARB     21       BRHM     H63      HCA3     0.090000        1.0080           0
       410 CARB     22       BGAL     C1       CC3162   0.290000       12.0110           0
       411 CARB     22       BGAL     H1       HCA1     0.090000        1.0080           0
       412 CARB     22       BGAL     C5       CC3163   0.110000       12.0110           0
       413 CARB     22       BGAL     H5       HCA1     0.090000        1.0080           0
       414 CARB     22       BGAL     O5       OC3C61  -0.400000       15.9994           0
       415 CARB     22       BGAL     C2       CC3161   0.090000       12.0110           0
       416 CARB     22       BGAL     H2       HCA1     0.090000        1.0080           0
       417 CARB     22       BGAL     O2       OC301   -0.360000       15.9994           0
       418 CARB     22       BGAL     C3       CC3161   0.140000       12.0110           0
       419 CARB     22       BGAL     H3       HCA1     0.090000        1.0080           0
       420 CARB     22       BGAL     O3       OC30P   -0.570000       15.9994           0
       421 CARB     22       BGAL     C4       CC3161   0.140000       12.0110           0
       422 CARB     22       BGAL     H4       HCA1     0.090000        1.0080           0
       423 CARB     22       BGAL     O4       OC311   -0.650000       15.9994           0
       424 CARB     22       BGAL     HO4      HCP1     0.420000        1.0080           0
       425 CARB     22       BGAL     C6       CC321    0.050000       12.0110           0
       426 CARB     22       BGAL     H61      HCA2     0.090000        1.0080           0
       427 CARB     22       BGAL     H62      HCA2     0.090000        1.0080           0
       428 CARB     22       BGAL     O6       OC311   -0.650000       15.9994           0
       429 CARB     22       BGAL     HO6      HCP1     0.420000        1.0080           0
       430 CARB     23       ARHM     C1       CC3162   0.290000       12.0110           0
       431 CARB     23       ARHM     H1       HCA1     0.090000        1.0080           0
       432 CARB     23       ARHM     C5       CC3163   0.110000       12.0110           0
       433 CARB     23       ARHM     H5       HCA1     0.090000        1.0080           0
       434 CARB     23       ARHM     O5       OC3C61  -0.400000       15.9994           0
       435 CARB     23       ARHM     C2       CC3161   0.140000       12.0110           0
       436 CARB     23       ARHM     H2       HCA1     0.090000        1.0080           0
       437 CARB     23       ARHM     O2       OC311   -0.650000       15.9994           0
       438 CARB     23       ARHM     HO2      HCP1     0.420000        1.0080           0
       439 CARB     23       ARHM     C3       CC3161   0.140000       12.0110           0
       440 CARB     23       ARHM     H3       HCA1     0.090000        1.0080           0
       441 CARB     23       ARHM     O3       OC311   -0.650000       15.9994           0
       442 CARB     23       ARHM     HO3      HCP1     0.420000        1.0080           0
       443 CARB     23       ARHM     C4       CC3161   0.140000       12.0110           0
       444 CARB     23       ARHM     H4       HCA1     0.090000        1.0080           0
       445 CARB     23       ARHM     O4       OC311   -0.650000       15.9994           0
       446 CARB     23       ARHM     HO4      HCP1     0.420000        1.0080           0
       447 CARB     23       ARHM     C6       CC331   -0.270000       12.0110           0
       448 CARB     23       ARHM     H61      HCA3     0.090000        1.0080           0
       449 CARB     23       ARHM     H62      HCA3     0.090000        1.0080           0
       450 CARB     23       ARHM     H63      HCA3     0.090000        1.0080           0
       451 CARB     24       G2P      C1       CC322    0.050000       12.0110           0
       452 CARB     24       G2P      H11      HCA2     0.090000        1.0080           0
       453 CARB     24       G2P      H12      HCA2     0.090000        1.0080           0
       454 CARB     24       G2P      O1       OC311   -0.650000       15.9994           0
       455 CARB     24       G2P      HO1      HCP1     0.420000        1.0080           0
       456 CARB     24       G2P      C2       CC312    0.140000       12.0110           0
       457 CARB     24       G2P      H2       HCA1     0.090000        1.0080           0
       458 CARB     24       G2P      O2       OC30P   -0.750000       15.9994           0
       459 CARB     24       G2P      P1       PC       1.500000       30.9740           0
       460 CARB     24       G2P      OP3      OC2DP   -0.820000       15.9994           0
       461 CARB     24       G2P      OP4      OC2DP   -0.820000       15.9994           0
       462 CARB     24       G2P      C3       CC322    0.050000       12.0110           0
       463 CARB     24       G2P      H31      HCA2     0.090000        1.0080           0
       464 CARB     24       G2P      H32      HCA2     0.090000        1.0080           0
       465 CARB     24       G2P      O3       OC311   -0.650000       15.9994           0
       466 CARB     24       G2P      HO3      HCP1     0.420000        1.0080           0
       467 CARB     25       BGLC     C1       CC3162   0.290000       12.0110           0
       468 CARB     25       BGLC     H1       HCA1     0.090000        1.0080           0
       469 CARB     25       BGLC     C5       CC3163   0.110000       12.0110           0
       470 CARB     25       BGLC     H5       HCA1     0.090000        1.0080           0
       471 CARB     25       BGLC     O5       OC3C61  -0.400000       15.9994           0
       472 CARB     25       BGLC     C2       CC3161   0.140000       12.0110           0
       473 CARB     25       BGLC     H2       HCA1     0.090000        1.0080           0
       474 CARB     25       BGLC     O2       OC311   -0.650000       15.9994           0
       475 CARB     25       BGLC     HO2      HCP1     0.420000        1.0080           0
       476 CARB     25       BGLC     C3       CC3161   0.140000       12.0110           0
       477 CARB     25       BGLC     H3       HCA1     0.090000        1.0080           0
       478 CARB     25       BGLC     O3       OC311   -0.650000       15.9994           0
       479 CARB     25       BGLC     HO3      HCP1     0.420000        1.0080           0
       480 CARB     25       BGLC     C4       CC3161   0.090000       12.0110           0
       481 CARB     25       BGLC     H4       HCA1     0.090000        1.0080           0
       482 CARB     25       BGLC     O4       OC301   -0.360000       15.9994           0
       483 CARB     25       BGLC     C6       CC321    0.050000       12.0110           0
       484 CARB     25       BGLC     H61      HCA2     0.090000        1.0080           0
       485 CARB     25       BGLC     H62      HCA2     0.090000        1.0080           0
       486 CARB     25       BGLC     O6       OC311   -0.650000       15.9994           0
       487 CARB     25       BGLC     HO6      HCP1     0.420000        1.0080           0
       488 CARB     26       BRHM     C1       CC3162   0.290000       12.0110           0
       489 CARB     26       BRHM     H1       HCA1     0.090000        1.0080           0
       490 CARB     26       BRHM     C5       CC3163   0.110000       12.0110           0
       491 CARB     26       BRHM     H5       HCA1     0.090000        1.0080           0
       492 CARB     26       BRHM     O5       OC3C61  -0.400000       15.9994           0
       493 CARB     26       BRHM     C2       CC3161   0.140000       12.0110           0
       494 CARB     26       BRHM     H2       HCA1     0.090000        1.0080           0
       495 CARB     26       BRHM     O2       OC311   -0.650000       15.9994           0
       496 CARB     26       BRHM     HO2      HCP1     0.420000        1.0080           0
       497 CARB     26       BRHM     C3       CC3161   0.090000       12.0110           0
       498 CARB     26       BRHM     H3       HCA1     0.090000        1.0080           0
       499 CARB     26       BRHM     O3       OC301   -0.360000       15.9994           0
       500 CARB     26       BRHM     C4       CC3161   0.090000       12.0110           0
       501 CARB     26       BRHM     H4       HCA1     0.090000        1.0080           0
       502 CARB     26       BRHM     O4       OC301   -0.360000       15.9994           0
       503 CARB     26       BRHM     C6       CC331   -0.270000       12.0110           0
       504 CARB     26       BRHM     H61      HCA3     0.090000        1.0080           0
       505 CARB     26       BRHM     H62      HCA3     0.090000        1.0080           0
       506 CARB     26       BRHM     H63      HCA3     0.090000        1.0080           0
       507 CARB     27       BGAL     C1       CC3162   0.290000       12.0110           0
       508 CARB     27       BGAL     H1       HCA1     0.090000        1.0080           0
       509 CARB     27       BGAL     C5       CC3163   0.110000       12.0110           0
       510 CARB     27       BGAL     H5       HCA1     0.090000        1.0080           0
       511 CARB     27       BGAL     O5       OC3C61  -0.400000       15.9994           0
       512 CARB     27       BGAL     C2       CC3161   0.090000       12.0110           0
       513 CARB     27       BGAL     H2       HCA1     0.090000        1.0080           0
       514 CARB     27       BGAL     O2       OC301   -0.360000       15.9994           0
       515 CARB     27       BGAL     C3       CC3161   0.140000       12.0110           0
       516 CARB     27       BGAL     H3       HCA1     0.090000        1.0080           0
       517 CARB     27       BGAL     O3       OC30P   -0.570000       15.9994           0
       518 CARB     27       BGAL     C4       CC3161   0.140000       12.0110           0
       519 CARB     27       BGAL     H4       HCA1     0.090000        1.0080           0
       520 CARB     27       BGAL     O4       OC311   -0.650000       15.9994           0
       521 CARB     27       BGAL     HO4      HCP1     0.420000        1.0080           0
       522 CARB     27       BGAL     C6       CC321    0.050000       12.0110           0
       523 CARB     27       BGAL     H61      HCA2     0.090000        1.0080           0
       524 CARB     27       BGAL     H62      HCA2     0.090000        1.0080           0
       525 CARB     27       BGAL     O6       OC311   -0.650000       15.9994           0
       526 CARB     27       BGAL     HO6      HCP1     0.420000        1.0080           0
       527 CARB     28       ARHM     C1       CC3162   0.290000       12.0110           0
       528 CARB     28       ARHM     H1       HCA1     0.090000        1.0080           0
       529 CARB     28       ARHM     C5       CC3163   0.110000       12.0110           0
       530 CARB     28       ARHM     H5       HCA1     0.090000        1.0080           0
       531 CARB     28       ARHM     O5       OC3C61  -0.400000       15.9994           0
       532 CARB     28       ARHM     C2       CC3161   0.140000       12.0110           0
       533 CARB     28       ARHM     H2       HCA1     0.090000        1.0080           0
       534 CARB     28       ARHM     O2       OC311   -0.650000       15.9994           0
       535 CARB     28       ARHM     HO2      HCP1     0.420000        1.0080           0
       536 CARB     28       ARHM     C3       CC3161   0.140000       12.0110           0
       537 CARB     28       ARHM     H3       HCA1     0.090000        1.0080           0
       538 CARB     28       ARHM     O3       OC311   -0.650000       15.9994           0
       539 CARB     28       ARHM     HO3      HCP1     0.420000        1.0080           0
       540 CARB     28       ARHM     C4       CC3161   0.140000       12.0110           0
       541 CARB     28       ARHM     H4       HCA1     0.090000        1.0080           0
       542 CARB     28       ARHM     O4       OC311   -0.650000       15.9994           0
       543 CARB     28       ARHM     HO4      HCP1     0.420000        1.0080           0
       544 CARB     28       ARHM     C6       CC331   -0.270000       12.0110           0
       545 CARB     28       ARHM     H61      HCA3     0.090000        1.0080           0
       546 CARB     28       ARHM     H62      HCA3     0.090000        1.0080           0
       547 CARB     28       ARHM     H63      HCA3     0.090000        1.0080           0
       548 CARB     29       G2P      C1       CC322    0.050000       12.0110           0
       549 CARB     29       G2P      H11      HCA2     0.090000        1.0080           0
       550 CARB     29       G2P      H12      HCA2     0.090000        1.0080           0
       551 CARB     29       G2P      O1       OC311   -0.650000       15.9994           0
       552 CARB     29       G2P      HO1      HCP1     0.420000        1.0080           0
       553 CARB     29       G2P      C2       CC312    0.140000       12.0110           0
       554 CARB     29       G2P      H2       HCA1     0.090000        1.0080           0
       555 CARB     29       G2P      O2       OC30P   -0.750000       15.9994           0
       556 CARB     29       G2P      P1       PC       1.500000       30.9740           0
       557 CARB     29       G2P      OP3      OC2DP   -0.820000       15.9994           0
       558 CARB     29       G2P      OP4      OC2DP   -0.820000       15.9994           0
       559 CARB     29       G2P      C3       CC322    0.050000       12.0110           0
       560 CARB     29       G2P      H31      HCA2     0.090000        1.0080           0
       561 CARB     29       G2P      H32      HCA2     0.090000        1.0080           0
       562 CARB     29       G2P      O3       OC311   -0.650000       15.9994           0
       563 CARB     29       G2P      HO3      HCP1     0.420000        1.0080           0
       564 CARB     30       BGLC     C1       CC3162   0.290000       12.0110           0
       565 CARB     30       BGLC     H1       HCA1     0.090000        1.0080           0
       566 CARB     30       BGLC     C5       CC3163   0.110000       12.0110           0
       567 CARB     30       BGLC     H5       HCA1     0.090000        1.0080           0
       568 CARB     30       BGLC     O5       OC3C61  -0.400000       15.9994           0
       569 CARB     30       BGLC     C2       CC3161   0.140000       12.0110           0
       570 CARB     30       BGLC     H2       HCA1     0.090000        1.0080           0
       571 CARB     30       BGLC     O2       OC311   -0.650000       15.9994           0
       572 CARB     30       BGLC     HO2      HCP1     0.420000        1.0080           0
       573 CARB     30       BGLC     C3       CC3161   0.140000       12.0110           0
       574 CARB     30       BGLC     H3       HCA1     0.090000        1.0080           0
       575 CARB     30       BGLC     O3       OC311   -0.650000       15.9994           0
       576 CARB     30       BGLC     HO3      HCP1     0.420000        1.0080           0
       577 CARB     30       BGLC     C4       CC3161   0.090000       12.0110           0
       578 CARB     30       BGLC     H4       HCA1     0.090000        1.0080           0
       579 CARB     30       BGLC     O4       OC301   -0.360000       15.9994           0
       580 CARB     30       BGLC     C6       CC321    0.050000       12.0110           0
       581 CARB     30       BGLC     H61      HCA2     0.090000        1.0080           0
       582 CARB     30       BGLC     H62      HCA2     0.090000        1.0080           0
       583 CARB     30       BGLC     O6       OC311   -0.650000       15.9994           0
       584 CARB     30       BGLC     HO6      HCP1     0.420000        1.0080           0
       585 CARB     31       BRHM     C1       CC3162   0.290000       12.0110           0
       586 CARB     31       BRHM     H1       HCA1     0.090000        1.0080           0
       587 CARB     31       BRHM     C5       CC3163   0.110000       12.0110           0
       588 CARB     31       BRHM     H5       HCA1     0.090000        1.0080           0
       589 CARB     31       BRHM     O5       OC3C61  -0.400000       15.9994           0
       590 CARB     31       BRHM     C2       CC3161   0.140000       12.0110           0
       591 CARB     31       BRHM     H2       HCA1     0.090000        1.0080           0
       592 CARB     31       BRHM     O2       OC311   -0.650000       15.9994           0
       593 CARB     31       BRHM     HO2      HCP1     0.420000        1.0080           0
       594 CARB     31       BRHM     C3       CC3161   0.090000       12.0110           0
       595 CARB     31       BRHM     H3       HCA1     0.090000        1.0080           0
       596 CARB     31       BRHM     O3       OC301   -0.360000       15.9994           0
       597 CARB     31       BRHM     C4       CC3161   0.090000       12.0110           0
       598 CARB     31       BRHM     H4       HCA1     0.090000        1.0080           0
       599 CARB     31       BRHM     O4       OC301   -0.360000       15.9994           0
       600 CARB     31       BRHM     C6       CC331   -0.270000       12.0110           0
       601 CARB     31       BRHM     H61      HCA3     0.090000        1.0080           0
       602 CARB     31       BRHM     H62      HCA3     0.090000        1.0080           0
       603 CARB     31       BRHM     H63      HCA3     0.090000        1.0080           0
       604 CARB     32       BGAL     C1       CC3162   0.290000       12.0110           0
       605 CARB     32       BGAL     H1       HCA1     0.090000        1.0080           0
       606 CARB     32       BGAL     C5       CC3163   0.110000       12.0110           0
       607 CARB     32       BGAL     H5       HCA1     0.090000        1.0080           0
       608 CARB     32       BGAL     O5       OC3C61  -0.400000       15.9994           0
       609 CARB     32       BGAL     C2       CC3161   0.090000       12.0110           0
       610 CARB     32       BGAL     H2       HCA1     0.090000        1.0080           0
       611 CARB     32       BGAL     O2       OC301   -0.360000       15.9994           0
       612 CARB     32       BGAL     C3       CC3161   0.140000       12.0110           0
       613 CARB     32       BGAL     H3       HCA1     0.090000        1.0080           0
       614 CARB     32       BGAL     O3       OC30P   -0.570000       15.9994           0
       615 CARB     32       BGAL     C4       CC3161   0.140000       12.0110           0
       616 CARB     32       BGAL     H4       HCA1     0.090000        1.0080           0
       617 CARB     32       BGAL     O4       OC311   -0.650000       15.9994           0
       618 CARB     32       BGAL     HO4      HCP1     0.420000        1.0080           0
       619 CARB     32       BGAL     C6       CC321    0.050000       12.0110           0
       620 CARB     32       BGAL     H61      HCA2     0.090000        1.0080           0
       621 CARB     32       BGAL     H62      HCA2     0.090000        1.0080           0
       622 CARB     32       BGAL     O6       OC311   -0.650000       15.9994           0
       623 CARB     32       BGAL     HO6      HCP1     0.420000        1.0080           0
       624 CARB     33       ARHM     C1       CC3162   0.290000       12.0110           0
       625 CARB     33       ARHM     H1       HCA1     0.090000        1.0080           0
       626 CARB     33       ARHM     C5       CC3163   0.110000       12.0110           0
       627 CARB     33       ARHM     H5       HCA1     0.090000        1.0080           0
       628 CARB     33       ARHM     O5       OC3C61  -0.400000       15.9994           0
       629 CARB     33       ARHM     C2       CC3161   0.140000       12.0110           0
       630 CARB     33       ARHM     H2       HCA1     0.090000        1.0080           0
       631 CARB     33       ARHM     O2       OC311   -0.650000       15.9994           0
       632 CARB     33       ARHM     HO2      HCP1     0.420000        1.0080           0
       633 CARB     33       ARHM     C3       CC3161   0.140000       12.0110           0
       634 CARB     33       ARHM     H3       HCA1     0.090000        1.0080           0
       635 CARB     33       ARHM     O3       OC311   -0.650000       15.9994           0
       636 CARB     33       ARHM     HO3      HCP1     0.420000        1.0080           0
       637 CARB     33       ARHM     C4       CC3161   0.140000       12.0110           0
       638 CARB     33       ARHM     H4       HCA1     0.090000        1.0080           0
       639 CARB     33       ARHM     O4       OC311   -0.650000       15.9994           0
       640 CARB     33       ARHM     HO4      HCP1     0.420000        1.0080           0
       641 CARB     33       ARHM     C6       CC331   -0.270000       12.0110           0
       642 CARB     33       ARHM     H61      HCA3     0.090000        1.0080           0
       643 CARB     33       ARHM     H62      HCA3     0.090000        1.0080           0
       644 CARB     33       ARHM     H63      HCA3     0.090000        1.0080           0
       645 CARB     34       G2P      C1       CC322    0.050000       12.0110           0
       646 CARB     34       G2P      H11      HCA2     0.090000        1.0080           0
       647 CARB     34       G2P      H12      HCA2     0.090000        1.0080           0
       648 CARB     34       G2P      O1       OC311   -0.650000       15.9994           0
       649 CARB     34       G2P      HO1      HCP1     0.420000        1.0080           0
       650 CARB     34       G2P      C2       CC312    0.140000       12.0110           0
       651 CARB     34       G2P      H2       HCA1     0.090000        1.0080           0
       652 CARB     34       G2P      O2       OC30P   -0.750000       15.9994           0
       653 CARB     34       G2P      P1       PC       1.500000       30.9740           0
       654 CARB     34       G2P      OP3      OC2DP   -0.820000       15.9994           0
       655 CARB     34       G2P      OP4      OC2DP   -0.820000       15.9994           0
       656 CARB     34       G2P      C3       CC322    0.050000       12.0110           0
       657 CARB     34       G2P      H31      HCA2     0.090000        1.0080           0
       658 CARB     34       G2P      H32      HCA2     0.090000        1.0080           0
       659 CARB     34       G2P      O3       OC311   -0.650000       15.9994           0
       660 CARB     34       G2P      HO3      HCP1     0.420000        1.0080           0
       661 CARB     35       BGLC     C1       CC3162   0.290000       12.0110           0
       662 CARB     35       BGLC     H1       HCA1     0.090000        1.0080           0
       663 CARB     35       BGLC     C5       CC3163   0.110000       12.0110           0
       664 CARB     35       BGLC     H5       HCA1     0.090000        1.0080           0
       665 CARB     35       BGLC     O5       OC3C61  -0.400000       15.9994           0
       666 CARB     35       BGLC     C2       CC3161   0.140000       12.0110           0
       667 CARB     35       BGLC     H2       HCA1     0.090000        1.0080           0
       668 CARB     35       BGLC     O2       OC311   -0.650000       15.9994           0
       669 CARB     35       BGLC     HO2      HCP1     0.420000        1.0080           0
       670 CARB     35       BGLC     C3       CC3161   0.140000       12.0110           0
       671 CARB     35       BGLC     H3       HCA1     0.090000        1.0080           0
       672 CARB     35       BGLC     O3       OC311   -0.650000       15.9994           0
       673 CARB     35       BGLC     HO3      HCP1     0.420000        1.0080           0
       674 CARB     35       BGLC     C4       CC3161   0.090000       12.0110           0
       675 CARB     35       BGLC     H4       HCA1     0.090000        1.0080           0
       676 CARB     35       BGLC     O4       OC301   -0.360000       15.9994           0
       677 CARB     35       BGLC     C6       CC321    0.050000       12.0110           0
       678 CARB     35       BGLC     H61      HCA2     0.090000        1.0080           0
       679 CARB     35       BGLC     H62      HCA2     0.090000        1.0080           0
       680 CARB     35       BGLC     O6       OC311   -0.650000       15.9994           0
       681 CARB     35       BGLC     HO6      HCP1     0.420000        1.0080           0
       682 CARB     36       BRHM     C1       CC3162   0.290000       12.0110           0
       683 CARB     36       BRHM     H1       HCA1     0.090000        1.0080           0
       684 CARB     36       BRHM     C5       CC3163   0.110000       12.0110           0
       685 CARB     36       BRHM     H5       HCA1     0.090000        1.0080           0
       686 CARB     36       BRHM     O5       OC3C61  -0.400000       15.9994           0
       687 CARB     36       BRHM     C2       CC3161   0.140000       12.0110           0
       688 CARB     36       BRHM     H2       HCA1     0.090000        1.0080           0
       689 CARB     36       BRHM     O2       OC311   -0.650000       15.9994           0
       690 CARB     36       BRHM     HO2      HCP1     0.420000        1.0080           0
       691 CARB     36       BRHM     C3       CC3161   0.090000       12.0110           0
       692 CARB     36       BRHM     H3       HCA1     0.090000        1.0080           0
       693 CARB     36       BRHM     O3       OC301   -0.360000       15.9994           0
       694 CARB     36       BRHM     C4       CC3161   0.090000       12.0110           0
       695 CARB     36       BRHM     H4       HCA1     0.090000        1.0080           0
       696 CARB     36       BRHM     O4       OC301   -0.360000       15.9994           0
       697 CARB     36       BRHM     C6       CC331   -0.270000       12.0110           0
       698 CARB     36       BRHM     H61      HCA3     0.090000        1.0080           0
       699 CARB     36       BRHM     H62      HCA3     0.090000        1.0080           0
       700 CARB     36       BRHM     H63      HCA3     0.090000        1.0080           0
       701 CARB     37       BGAL     C1       CC3162   0.290000       12.0110           0
       702 CARB     37       BGAL     H1       HCA1     0.090000        1.0080           0
       703 CARB     37       BGAL     C5       CC3163   0.110000       12.0110           0
       704 CARB     37       BGAL     H5       HCA1     0.090000        1.0080           0
       705 CARB     37       BGAL     O5       OC3C61  -0.400000       15.9994           0
       706 CARB     37       BGAL     C2       CC3161   0.090000       12.0110           0
       707 CARB     37       BGAL     H2       HCA1     0.090000        1.0080           0
       708 CARB     37       BGAL     O2       OC301   -0.360000       15.9994           0
       709 CARB     37       BGAL     C3       CC3161   0.140000       12.0110           0
       710 CARB     37       BGAL     H3       HCA1     0.090000        1.0080           0
       711 CARB     37       BGAL     O3       OC30P   -0.570000       15.9994           0
       712 CARB     37       BGAL     C4       CC3161   0.140000       12.0110           0
       713 CARB     37       BGAL     H4       HCA1     0.090000        1.0080           0
       714 CARB     37       BGAL     O4       OC311   -0.650000       15.9994           0
       715 CARB     37       BGAL     HO4      HCP1     0.420000        1.0080           0
       716 CARB     37       BGAL     C6       CC321    0.050000       12.0110           0
       717 CARB     37       BGAL     H61      HCA2     0.090000        1.0080           0
       718 CARB     37       BGAL     H62      HCA2     0.090000        1.0080           0
       719 CARB     37       BGAL     O6       OC311   -0.650000       15.9994           0
       720 CARB     37       BGAL     HO6      HCP1     0.420000        1.0080           0
       721 CARB     38       ARHM     C1       CC3162   0.290000       12.0110           0
       722 CARB     38       ARHM     H1       HCA1     0.090000        1.0080           0
       723 CARB     38       ARHM     C5       CC3163   0.110000       12.0110           0
       724 CARB     38       ARHM     H5       HCA1     0.090000        1.0080           0
       725 CARB     38       ARHM     O5       OC3C61  -0.400000       15.9994           0
       726 CARB     38       ARHM     C2       CC3161   0.140000       12.0110           0
       727 CARB     38       ARHM     H2       HCA1     0.090000        1.0080           0
       728 CARB     38       ARHM     O2       OC311   -0.650000       15.9994           0
       729 CARB     38       ARHM     HO2      HCP1     0.420000        1.0080           0
       730 CARB     38       ARHM     C3       CC3161   0.140000       12.0110           0
       731 CARB     38       ARHM     H3       HCA1     0.090000        1.0080           0
       732 CARB     38       ARHM     O3       OC311   -0.650000       15.9994           0
       733 CARB     38       ARHM     HO3      HCP1     0.420000        1.0080           0
       734 CARB     38       ARHM     C4       CC3161   0.140000       12.0110           0
       735 CARB     38       ARHM     H4       HCA1     0.090000        1.0080           0
       736 CARB     38       ARHM     O4       OC311   -0.650000       15.9994           0
       737 CARB     38       ARHM     HO4      HCP1     0.420000        1.0080           0
       738 CARB     38       ARHM     C6       CC331   -0.270000       12.0110           0
       739 CARB     38       ARHM     H61      HCA3     0.090000        1.0080           0
       740 CARB     38       ARHM     H62      HCA3     0.090000        1.0080           0
       741 CARB     38       ARHM     H63      HCA3     0.090000        1.0080           0
       742 CARB     39       G2P      C1       CC322    0.050000       12.0110           0
       743 CARB     39       G2P      H11      HCA2     0.090000        1.0080           0
       744 CARB     39       G2P      H12      HCA2     0.090000        1.0080           0
       745 CARB     39       G2P      O1       OC311   -0.650000       15.9994           0
       746 CARB     39       G2P      HO1      HCP1     0.420000        1.0080           0
       747 CARB     39       G2P      C2       CC312    0.140000       12.0110           0
       748 CARB     39       G2P      H2       HCA1     0.090000        1.0080           0
       749 CARB     39       G2P      O2       OC30P   -0.750000       15.9994           0
       750 CARB     39       G2P      P1       PC       1.500000       30.9740           0
       751 CARB     39       G2P      OP3      OC2DP   -0.820000       15.9994           0
       752 CARB     39       G2P      OP4      OC2DP   -0.820000       15.9994           0
       753 CARB     39       G2P      C3       CC322    0.050000       12.0110           0
       754 CARB     39       G2P      H31      HCA2     0.090000        1.0080           0
       755 CARB     39       G2P      H32      HCA2     0.090000        1.0080           0
       756 CARB     39       G2P      O3       OC311   -0.650000       15.9994           0
       757 CARB     39       G2P      HO3      HCP1     0.420000        1.0080           0
       758 CARB     40       BGLC     C1       CC3162   0.290000       12.0110           0
       759 CARB     40       BGLC     H1       HCA1     0.090000        1.0080           0
       760 CARB     40       BGLC     C5       CC3163   0.110000       12.0110           0
       761 CARB     40       BGLC     H5       HCA1     0.090000        1.0080           0
       762 CARB     40       BGLC     O5       OC3C61  -0.400000       15.9994           0
       763 CARB     40       BGLC     C2       CC3161   0.140000       12.0110           0
       764 CARB     40       BGLC     H2       HCA1     0.090000        1.0080           0
       765 CARB     40       BGLC     O2       OC311   -0.650000       15.9994           0
       766 CARB     40       BGLC     HO2      HCP1     0.420000        1.0080           0
       767 CARB     40       BGLC     C3       CC3161   0.140000       12.0110           0
       768 CARB     40       BGLC     H3       HCA1     0.090000        1.0080           0
       769 CARB     40       BGLC     O3       OC311   -0.650000       15.9994           0
       770 CARB     40       BGLC     HO3      HCP1     0.420000        1.0080           0
       771 CARB     40       BGLC     C4       CC3161   0.090000       12.0110           0
       772 CARB     40       BGLC     H4       HCA1     0.090000        1.0080           0
       773 CARB     40       BGLC     O4       OC301   -0.360000       15.9994           0
       774 CARB     40       BGLC     C6       CC321    0.050000       12.0110           0
       775 CARB     40       BGLC     H61      HCA2     0.090000        1.0080           0
       776 CARB     40       BGLC     H62      HCA2     0.090000        1.0080           0
       777 CARB     40       BGLC     O6       OC311   -0.650000       15.9994           0
       778 CARB     40       BGLC     HO6      HCP1     0.420000        1.0080           0
       779 CARB     41       BRHM     C1       CC3162   0.290000       12.0110           0
       780 CARB     41       BRHM     H1       HCA1     0.090000        1.0080           0
       781 CARB     41       BRHM     C5       CC3163   0.110000       12.0110           0
       782 CARB     41       BRHM     H5       HCA1     0.090000        1.0080           0
       783 CARB     41       BRHM     O5       OC3C61  -0.400000       15.9994           0
       784 CARB     41       BRHM     C2       CC3161   0.140000       12.0110           0
       785 CARB     41       BRHM     H2       HCA1     0.090000        1.0080           0
       786 CARB     41       BRHM     O2       OC311   -0.650000       15.9994           0
       787 CARB     41       BRHM     HO2      HCP1     0.420000        1.0080           0
       788 CARB     41       BRHM     C3       CC3161   0.090000       12.0110           0
       789 CARB     41       BRHM     H3       HCA1     0.090000        1.0080           0
       790 CARB     41       BRHM     O3       OC301   -0.360000       15.9994           0
       791 CARB     41       BRHM     C4       CC3161   0.090000       12.0110           0
       792 CARB     41       BRHM     H4       HCA1     0.090000        1.0080           0
       793 CARB     41       BRHM     O4       OC301   -0.360000       15.9994           0
       794 CARB     41       BRHM     C6       CC331   -0.270000       12.0110           0
       795 CARB     41       BRHM     H61      HCA3     0.090000        1.0080           0
       796 CARB     41       BRHM     H62      HCA3     0.090000        1.0080           0
       797 CARB     41       BRHM     H63      HCA3     0.090000        1.0080           0
       798 CARB     42       BGAL     C1       CC3162   0.290000       12.0110           0
       799 CARB     42       BGAL     H1       HCA1     0.090000        1.0080           0
       800 CARB     42       BGAL     C5       CC3163   0.110000       12.0110           0
       801 CARB     42       BGAL     H5       HCA1     0.090000        1.0080           0
       802 CARB     42       BGAL     O5       OC3C61  -0.400000       15.9994           0
       803 CARB     42       BGAL     C2       CC3161   0.090000       12.0110           0
       804 CARB     42       BGAL     H2       HCA1     0.090000        1.0080           0
       805 CARB     42       BGAL     O2       OC301   -0.360000       15.9994           0
       806 CARB     42       BGAL     C3       CC3161   0.140000       12.0110           0
       807 CARB     42       BGAL     H3       HCA1     0.090000        1.0080           0
       808 CARB     42       BGAL     O3       OC30P   -0.570000       15.9994           0
       809 CARB     42       BGAL     C4       CC3161   0.140000       12.0110           0
       810 CARB     42       BGAL     H4       HCA1     0.090000        1.0080           0
       811 CARB     42       BGAL     O4       OC311   -0.650000       15.9994           0
       812 CARB     42       BGAL     HO4      HCP1     0.420000        1.0080           0
       813 CARB     42       BGAL     C6       CC321    0.050000       12.0110           0
       814 CARB     42       BGAL     H61      HCA2     0.090000        1.0080           0
       815 CARB     42       BGAL     H62      HCA2     0.090000        1.0080           0
       816 CARB     42       BGAL     O6       OC311   -0.650000       15.9994           0
       817 CARB     42       BGAL     HO6      HCP1     0.420000        1.0080           0
       818 CARB     43       ARHM     C1       CC3162   0.290000       12.0110           0
       819 CARB     43       ARHM     H1       HCA1     0.090000        1.0080           0
       820 CARB     43       ARHM     C5       CC3163   0.110000       12.0110           0
       821 CARB     43       ARHM     H5       HCA1     0.090000        1.0080           0
       822 CARB     43       ARHM     O5       OC3C61  -0.400000       15.9994           0
       823 CARB     43       ARHM     C2       CC3161   0.140000       12.0110           0
       824 CARB     43       ARHM     H2       HCA1     0.090000        1.0080           0
       825 CARB     43       ARHM     O2       OC311   -0.650000       15.9994           0
       826 CARB     43       ARHM     HO2      HCP1     0.420000        1.0080           0
       827 CARB     43       ARHM     C3       CC3161   0.140000       12.0110           0
       828 CARB     43       ARHM     H3       HCA1     0.090000        1.0080           0
       829 CARB     43       ARHM     O3       OC311   -0.650000       15.9994           0
       830 CARB     43       ARHM     HO3      HCP1     0.420000        1.0080           0
       831 CARB     43       ARHM     C4       CC3161   0.140000       12.0110           0
       832 CARB     43       ARHM     H4       HCA1     0.090000        1.0080           0
       833 CARB     43       ARHM     O4       OC311   -0.650000       15.9994           0
       834 CARB     43       ARHM     HO4      HCP1     0.420000        1.0080           0
       835 CARB     43       ARHM     C6       CC331   -0.270000       12.0110           0
       836 CARB     43       ARHM     H61      HCA3     0.090000        1.0080           0
       837 CARB     43       ARHM     H62      HCA3     0.090000        1.0080           0
       838 CARB     43       ARHM     H63      HCA3     0.090000        1.0080           0
       839 CARB     44       G2P      C1       CC322    0.050000       12.0110           0
       840 CARB     44       G2P      H11      HCA2     0.090000        1.0080           0
       841 CARB     44       G2P      H12      HCA2     0.090000        1.0080           0
       842 CARB     44       G2P      O1       OC311   -0.650000       15.9994           0
       843 CARB     44       G2P      HO1      HCP1     0.420000        1.0080           0
       844 CARB     44       G2P      C2       CC312    0.140000       12.0110           0
       845 CARB     44       G2P      H2       HCA1     0.090000        1.0080           0
       846 CARB     44       G2P      O2       OC30P   -0.750000       15.9994           0
       847 CARB     44       G2P      P1       PC       1.500000       30.9740           0
       848 CARB     44       G2P      OP3      OC2DP   -0.820000       15.9994           0
       849 CARB     44       G2P      OP4      OC2DP   -0.820000       15.9994           0
       850 CARB     44       G2P      C3       CC322    0.050000       12.0110           0
       851 CARB     44       G2P      H31      HCA2     0.090000        1.0080           0
       852 CARB     44       G2P      H32      HCA2     0.090000        1.0080           0
       853 CARB     44       G2P      O3       OC311   -0.650000       15.9994           0
       854 CARB     44       G2P      HO3      HCP1     0.420000        1.0080           0
       855 CARB     45       BGLC     C1       CC3162   0.290000       12.0110           0
       856 CARB     45       BGLC     H1       HCA1     0.090000        1.0080           0
       857 CARB     45       BGLC     C5       CC3163   0.110000       12.0110           0
       858 CARB     45       BGLC     H5       HCA1     0.090000        1.0080           0
       859 CARB     45       BGLC     O5       OC3C61  -0.400000       15.9994           0
       860 CARB     45       BGLC     C2       CC3161   0.140000       12.0110           0
       861 CARB     45       BGLC     H2       HCA1     0.090000        1.0080           0
       862 CARB     45       BGLC     O2       OC311   -0.650000       15.9994           0
       863 CARB     45       BGLC     HO2      HCP1     0.420000        1.0080           0
       864 CARB     45       BGLC     C3       CC3161   0.140000       12.0110           0
       865 CARB     45       BGLC     H3       HCA1     0.090000        1.0080           0
       866 CARB     45       BGLC     O3       OC311   -0.650000       15.9994           0
       867 CARB     45       BGLC     HO3      HCP1     0.420000        1.0080           0
       868 CARB     45       BGLC     C4       CC3161   0.140000       12.0110           0
       869 CARB     45       BGLC     H4       HCA1     0.090000        1.0080           0
       870 CARB     45       BGLC     O4       OC311   -0.650000       15.9994           0
       871 CARB     45       BGLC     HO4      HCP1     0.420000        1.0080           0
       872 CARB     45       BGLC     C6       CC321    0.050000       12.0110           0
       873 CARB     45       BGLC     H61      HCA2     0.090000        1.0080           0
       874 CARB     45       BGLC     H62      HCA2     0.090000        1.0080           0
       875 CARB     45       BGLC     O6       OC311   -0.650000       15.9994           0
       876 CARB     45       BGLC     HO6      HCP1     0.420000        1.0080           0
       877 WT1      1        TIP3     OH2      OT      -0.834000       15.9994           0
       878 WT1      1        TIP3     H1       HT       0.417000        1.0080           0
       879 WT1      1        TIP3     H2       HT       0.417000        1.0080           0
       880 WT1      2        TIP3     OH2      OT      -0.834000       15.9994           0
       881 WT1      2        TIP3     H1       HT       0.417000        1.0080           0
       882 WT1      2        TIP3     H2       HT       0.417000        1.0080           0
       883 WT1      3        TIP3     OH2      OT      -0.834000       15.9994           0
       884 WT1      3        TIP3     H1       HT       0.417000        1.0080           0
       885 WT1      3        TIP3     H2       HT       0.417000        1.0080           0
       886 WT1      4        TIP3     OH2      OT      -0.834000       15.9994           0
       887 WT1      4        TIP3     H1       HT       0.417000        1.0080           0
       888 WT1      4        TIP3     H2       HT       0.417000        1.0080           0
       889 WT1      5        TIP3     OH2      OT      -0.834000       15.9994           0
       890 WT1      5        TIP3     H1       HT       0.417000        1.0080           0
       891 WT1      5        TIP3     H2       HT       0.417000        1.0080           0
       892 WT1      6        TIP3     OH2      OT      -0.834000       15.9994           0
       893 WT1      6        TIP3     H1       HT       0.417000        1.0080           0
       894 WT1      6        TIP3     H2       HT       0.417000        1.0080           0
       895 WT1      7        TIP3     OH2      OT      -0.834000       15.9994           0
       896 WT1      7        TIP3     H1       HT       0.417000        1.0080           0
       897 WT1      7        TIP3     H2       HT       0.417000        1.0080           0
       898 WT1      8        TIP3     OH2      OT      -0.834000       15.9994           0
       899 WT1      8        TIP3     H1       HT       0.417000        1.0080           0
       900 WT1      8        TIP3     H2       HT       0.417000        1.0080           0
       901 WT1      9        TIP3     OH2      OT      -0.834000       15.9994           0
       902 WT1      9        TIP3     H1       HT       0.417000        1.0080           0
       903 WT1      9        TIP3     H2       HT       0.417000        1.0080           0
       904 WT1      10       TIP3     OH2      OT      -0.834000       15.9994           0
       905 WT1      10       TIP3     H1       HT       0.417000        1.0080           0
       906 WT1      10       TIP3     H2       HT       0.417000        1.0080           0
       907 WT1      11       TIP3     OH2      OT      -0.834000       15.9994           0
       908 WT1      11       TIP3     H1       HT       0.417000        1.0080           0
       909 WT1      11       TIP3     H2       HT       0.417000        1.0080           0
       910 WT1      12       TIP3     OH2      OT      -0.834000       15.9994           0
       911 WT1      12       TIP3     H1       HT       0.417000        1.0080           0
       912 WT1      12       TIP3     H2       HT       0.417000        1.0080           0
       913 WT1      13       TIP3     OH2      OT      -0.834000       15.9994           0
       914 WT1      13       TIP3     H1       HT       0.417000        1.0080           0
       915 WT1      13       TIP3     H2       HT       0.417000        1.0080           0
       916 WT1      14       TIP3     OH2      OT      -0.834000       15.9994           0
       917 WT1      14       TIP3     H1       HT       0.417000        1.0080           0
       918 WT1      14       TIP3     H2       HT       0.417000        1.0080           0
       919 WT1      15       TIP3     OH2      OT      -0.834000       15.9994           0
       920 WT1      15       TIP3     H1       HT       0.417000        1.0080           0
       921 WT1      15       TIP3     H2       HT       0.417000        1.0080           0
       922 WT1      16       TIP3     OH2      OT      -0.834000       15.9994           0
       923 WT1      16       TIP3     H1       HT       0.417000        1.0080           0
       924 WT1      16       TIP3     H2       HT       0.417000        1.0080           0
       925 WT1      17       TIP3     OH2      OT      -0.834000       15.9994           0
       926 WT1      17       TIP3     H1       HT       0.417000        1.0080           0
       927 WT1      17       TIP3     H2       HT       0.417000        1.0080           0
       928 WT1      18       TIP3     OH2      OT      -0.834000       15.9994           0
       929 WT1      18       TIP3     H1       HT       0.417000        1.0080           0
       930 WT1      18       TIP3     H2       HT       0.417000        1.0080           0
       931 WT1      19       TIP3     OH2      OT      -0.834000       15.9994           0
       932 WT1      19       TIP3     H1       HT       0.417000        1.0080           0
       933 WT1      19       TIP3     H2       HT       0.417000        1.0080           0
       934 WT1      20       TIP3     OH2      OT      -0.834000       15.9994           0
       935 WT1      20       TIP3     H1       HT       0.417000        1.0080           0
       936 WT1      20       TIP3     H2       HT       0.417000        1.0080           0
       937 WT1      21       TIP3     OH2      OT      -0.834000       15.9994           0
       938 WT1      21       TIP3     H1       HT       0.417000        1.0080           0
       939 WT1      21       TIP3     H2       HT       0.417000        1.0080           0
       940 WT1      22       TIP3     OH2      OT      -0.834000       15.9994           0
       941 WT1      22       TIP3     H1       HT       0.417000        1.0080           0
       942 WT1      22       TIP3     H2       HT       0.417000        1.0080           0
       943 WT1      23       TIP3     OH2      OT      -0.834000       15.9994           0
       944 WT1      23       TIP3     H1       HT       0.417000        1.0080           0
       945 WT1      23       TIP3     H2       HT       0.417000        1.0080           0
       946 WT1      24       TIP3     OH2      OT      -0.834000       15.9994           0
       947 WT1      24       TIP3     H1       HT       0.417000        1.0080           0
       948 WT1      24       TIP3     H2       HT       0.417000        1.0080           0
       949 WT1      25       TIP3     OH2      OT      -0.834000       15.9994           0
       950 WT1      25       TIP3     H1       HT       0.417000        1.0080           0
       951 WT1      25       TIP3     H2       HT       0.417000        1.0080           0
       952 WT1      26       TIP3     OH2      OT      -0.834000       15.9994           0
       953 WT1      26       TIP3     H1       HT       0.417000        1.0080           0
       954 WT1      26       TIP3     H2       HT       0.417000        1.0080           0
       955 WT1      27       TIP3     OH2      OT      -0.834000       15.9994           0
       956 WT1      27       TIP3     H1       HT       0.417000        1.0080           0
       957 WT1      27       TIP3     H2       HT       0.417000        1.0080           0
       958 WT1      28       TIP3     OH2      OT      -0.834000       15.9994           0
       959 WT1      28       TIP3     H1       HT       0.417000        1.0080           0
       960 WT1      28       TIP3     H2       HT       0.417000        1.0080           0
       961 WT1      29       TIP3     OH2      OT      -0.834000       15.9994           0
       962 WT1      29       TIP3     H1       HT       0.417000        1.0080           0
       963 WT1      29       TIP3     H2       HT       0.417000        1.0080           0
       964 WT1      30       TIP3     OH2      OT      -0.834000       15.9994           0
       965 WT1      30       TIP3     H1       HT       0.417000        1.0080           0
       966 WT1      30       TIP3     H2       HT       0.417000        1.0080           0
       967 WT1      31       TIP3     OH2      OT      -0.834000       15.9994           0
       968 WT1      31       TIP3     H1       HT       0.417000        1.0080           0
       969 WT1      31       TIP3     H2       HT       0.417000        1.0080           0
       970 WT1      32       TIP3     OH2      OT      -0.834000       15.9994           0
       971 WT1      32       TIP3     H1       HT       0.417000        1.0080           0
       972 WT1      32       TIP3     H2       HT       0.417000        1.0080           0
       973 WT1      33       TIP3     OH2      OT      -0.834000       15.9994           0
       974 WT1      33       TIP3     H1       HT       0.417000        1.0080           0
       975 WT1      33       TIP3     H2       HT       0.417000        1.0080           0
       976 WT1      34       TIP3     OH2      OT      -0.834000       15.9994           0
       977 WT1      34       TIP3     H1       HT       0.417000        1.0080           0
       978 WT1      34       TIP3     H2       HT       0.417000        1.0080           0
       979 WT1      35       TIP3     OH2      OT      -0.834000       15.9994           0
       980 WT1      35       TIP3     H1       HT       0.417000        1.0080           0
       981 WT1      35       TIP3     H2       HT       0.417000        1.0080           0
       982 WT1      38       TIP3     OH2      OT      -0.834000       15.9994           0
       983 WT1      38       TIP3     H1       HT       0.417000        1.0080           0
       984 WT1      38       TIP3     H2       HT       0.417000        1.0080           0
       985 WT1      39       TIP3     OH2      OT      -0.834000       15.9994           0
       986 WT1      39       TIP3     H1       HT       0.417000        1.0080           0
       987 WT1      39       TIP3     H2       HT       0.417000        1.0080           0
       988 WT1      40       TIP3     OH2      OT      -0.834000       15.9994           0
       989 WT1      40       TIP3     H1       HT       0.417000        1.0080           0
       990 WT1      40       TIP3     H2       HT       0.417000        1.0080           0
       991 WT1      41       TIP3     OH2      OT      -0.834000       15.9994           0
       992 WT1      41       TIP3     H1       HT       0.417000        1.0080           0
       993 WT1      41       TIP3     H2       HT       0.417000        1.0080           0
       994 WT1      42       TIP3     OH2      OT      -0.834000       15.9994           0
       995 WT1      42       TIP3     H1       HT       0.417000        1.0080           0
       996 WT1      42       TIP3     H2       HT       0.417000        1.0080           0
       997 WT1      43       TIP3     OH2      OT      -0.834000       15.9994           0
       998 WT1      43       TIP3     H1       HT       0.417000        1.0080           0
       999 WT1      43       TIP3     H2       HT       0.417000        1.0080           0
      1000 WT1      44       TIP3     OH2      OT      -0.834000       15.9994           0
      1001 WT1      44       TIP3     H1       HT       0.417000        1.0080           0
      1002 WT1      44       TIP3     H2       HT       0.417000        1.0080           0
      1003 WT1      45       TIP3     OH2      OT      -0.834000       15.9994           0
      1004 WT1      45       TIP3     H1       HT       0.417000        1.0080           0
      1005 WT1      45       TIP3     H2       HT       0.417000        1.0080           0
      1006 WT1      46       TIP3     OH2      OT      -0.834000       15.9994           0
      1007 WT1      46       TIP3     H1       HT       0.417000        1.0080           0
      1008 WT1      46       TIP3     H2       HT       0.417000        1.0080           0
      1009 WT1      47       TIP3     OH2      OT      -0.834000       15.9994           0
      1010 WT1      47       TIP3     H1       HT       0.417000        1.0080           0
      1011 WT1      47       TIP3     H2       HT       0.417000        1.0080           0
      1012 WT1      48       TIP3     OH2      OT      -0.834000       15.9994           0
      1013 WT1      48       TIP3     H1       HT       0.417000        1.0080           0
      1014 WT1      48       TIP3     H2       HT       0.417000        1.0080           0
      1015 WT1      49       TIP3     OH2      OT      -0.834000       15.9994           0
      1016 WT1      49       TIP3     H1       HT       0.417000        1.0080           0
      1017 WT1      49       TIP3     H2       HT       0.417000        1.0080           0
      1018 WT1      50       TIP3     OH2      OT      -0.834000       15.9994           0
      1019 WT1      50       TIP3     H1       HT       0.417000        1.0080           0
      1020 WT1      50       TIP3     H2       HT       0.417000        1.0080           0
      1021 WT1      51       TIP3     OH2      OT      -0.834000       15.9994           0
      1022 WT1      51       TIP3     H1       HT       0.417000        1.0080           0
      1023 WT1      51       TIP3     H2       HT       0.417000        1.0080           0
      1024 WT1      52       TIP3     OH2      OT      -0.834000       15.9994           0
      1025 WT1      52       TIP3     H1       HT       0.417000        1.0080           0
      1026 WT1      52       TIP3     H2       HT       0.417000        1.0080           0
      1027 WT1      53       TIP3     OH2      OT      -0.834000       15.9994           0
      1028 WT1      53       TIP3     H1       HT       0.417000        1.0080           0
      1029 WT1      53       TIP3     H2       HT       0.417000        1.0080           0
      1030 WT1      54       TIP3     OH2      OT      -0.834000       15.9994           0
      1031 WT1      54       TIP3     H1       HT       0.417000        1.0080           0
      1032 WT1      54       TIP3     H2       HT       0.417000        1.0080           0
      1033 WT1      55       TIP3     OH2      OT      -0.834000       15.9994           0
      1034 WT1      55       TIP3     H1       HT       0.417000        1.0080           0
      1035 WT1      55       TIP3     H2       HT       0.417000        1.0080           0
      1036 WT1      56       TIP3     OH2      OT      -0.834000       15.9994           0
      1037 WT1      56       TIP3     H1       HT       0.417000        1.0080           0
      1038 WT1      56       TIP3     H2       HT       0.417000        1.0080           0
      1039 WT1      57       TIP3     OH2      OT      -0.834000       15.9994           0
      1040 WT1      57       TIP3     H1       HT       0.417000        1.0080           0
      1041 WT1      57       TIP3     H2       HT       0.417000        1.0080           0
      1042 WT1      58       TIP3     OH2      OT      -0.834000       15.9994           0
      1043 WT1      58       TIP3     H1       HT       0.417000        1.0080           0
      1044 WT1      58       TIP3     H2       HT       0.417000        1.0080           0
      1045 WT1      59       TIP3     OH2      OT      -0.834000       15.9994           0
      1046 WT1      59       TIP3     H1       HT       0.417000        1.0080           0
      1047 WT1      59       TIP3     H2       HT       0.417000        1.0080           0
      1048 WT1      60       TIP3     OH2      OT      -0.834000       15.9994           0
      1049 WT1      60       TIP3     H1       HT       0.417000        1.0080           0
      1050 WT1      60       TIP3     H2       HT       0.417000        1.0080           0
      1051 WT1      61       TIP3     OH2      OT      -0.834000       15.9994           0
      1052 WT1      61       TIP3     H1       HT       0.417000        1.0080           0
      1053 WT1      61       TIP3     H2       HT       0.417000        1.0080           0
      1054 WT1      62       TIP3     OH2      OT      -0.834000       15.9994           0
      1055 WT1      62       TIP3     H1       HT       0.417000        1.0080           0
      1056 WT1      62       TIP3     H2       HT       0.417000        1.0080           0
      1057 WT1      63       TIP3     OH2      OT      -0.834000       15.9994           0
      1058 WT1      63       TIP3     H1       HT       0.417000        1.0080           0
      1059 WT1      63       TIP3     H2       HT       0.417000        1.0080           0
      1060 WT1      64       TIP3     OH2      OT      -0.834000       15.9994           0
      1061 WT1      64       TIP3     H1       HT       0.417000        1.0080           0
      1062 WT1      64       TIP3     H2       HT       0.417000        1.0080           0
      1063 WT1      65       TIP3     OH2      OT      -0.834000       15.9994           0
      1064 WT1      65       TIP3     H1       HT       0.417000        1.0080           0
      1065 WT1      65       TIP3     H2       HT       0.417000        1.0080           0
      1066 WT1      66       TIP3     OH2      OT      -0.834000       15.9994           0
      1067 WT1      66       TIP3     H1       HT       0.417000        1.0080           0
      1068 WT1      66       TIP3     H2       HT       0.417000        1.0080           0
      1069 WT1      67       TIP3     OH2      OT      -0.834000       15.9994           0
      1070 WT1      67       TIP3     H1       HT       0.417000        1.0080           0
      1071 WT1      67       TIP3     H2       HT       0.417000        1.0080           0
      1072 WT1      68       TIP3     OH2      OT      -0.834000       15.9994           0
      1073 WT1      68       TIP3     H1       HT       0.417000        1.0080           0
      1074 WT1      68       TIP3     H2       HT       0.417000        1.0080           0
      1075 WT1      69       TIP3     OH2      OT      -0.834000       15.9994           0
      1076 WT1      69       TIP3     H1       HT       0.417000        1.0080           0
      1077 WT1      69       TIP3     H2       HT       0.417000        1.0080           0
      1078 WT1      70       TIP3     OH2      OT      -0.834000       15.9994           0
      1079 WT1      70       TIP3     H1       HT       0.417000        1.0080           0
      1080 WT1      70       TIP3     H2       HT       0.417000        1.0080           0
      1081 WT1      71       TIP3     OH2      OT      -0.834000       15.9994           0
      1082 WT1      71       TIP3     H1       HT       0.417000        1.0080           0
      1083 WT1      71       TIP3     H2       HT       0.417000        1.0080           0
      1084 WT1      72       TIP3     OH2      OT      -0.834000       15.9994           0
      1085 WT1      72       TIP3     H1       HT       0.417000        1.0080           0
      1086 WT1      72       TIP3     H2       HT       0.417000        1.0080           0
      1087 WT1      73       TIP3     OH2      OT      -0.834000       15.9994           0
      1088 WT1      73       TIP3     H1       HT       0.417000        1.0080           0
      1089 WT1      73       TIP3     H2       HT       0.417000        1.0080           0
      1090 WT1      74       TIP3     OH2      OT      -0.834000       15.9994           0
      1091 WT1      74       TIP3     H1       HT       0.417000        1.0080           0
      1092 WT1      74       TIP3     H2       HT       0.417000        1.0080           0
      1093 WT1      75       TIP3     OH2      OT      -0.834000       15.9994           0
      1094 WT1      75       TIP3     H1       HT       0.417000        1.0080           0
      1095 WT1      75       TIP3     H2       HT       0.417000        1.0080           0
      1096 WT1      76       TIP3     OH2      OT      -0.834000       15.9994           0
      1097 WT1      76       TIP3     H1       HT       0.417000        1.0080           0
      1098 WT1      76       TIP3     H2       HT       0.417000        1.0080           0
      1099 WT1      77       TIP3     OH2      OT      -0.834000       15.9994           0
      1100 WT1      77       TIP3     H1       HT       0.417000        1.0080           0
      1101 WT1      77       TIP3     H2       HT       0.417000        1.0080           0
      1102 WT1      78       TIP3     OH2      OT      -0.834000       15.9994           0
      1103 WT1      78       TIP3     H1       HT       0.417000        1.0080           0
      1104 WT1      78       TIP3     H2       HT       0.417000        1.0080           0
      1105 WT1      79       TIP3     OH2      OT      -0.834000       15.9994           0
      1106 WT1      79       TIP3     H1       HT       0.417000        1.0080           0
      1107 WT1      79       TIP3     H2       HT       0.417000        1.0080           0
      1108 WT1      80       TIP3     OH2      OT      -0.834000       15.9994           0
      1109 WT1      80       TIP3     H1       HT       0.417000        1.0080           0
      1110 WT1      80       TIP3     H2       HT       0.417000        1.0080           0
      1111 WT1      81       TIP3     OH2      OT      -0.834000       15.9994           0
      1112 WT1      81       TIP3     H1       HT       0.417000        1.0080           0
      1113 WT1      81       TIP3     H2       HT       0.417000        1.0080           0
      1114 WT1      82       TIP3     OH2      OT      -0.834000       15.9994           0
      1115 WT1      82       TIP3     H1       HT       0.417000        1.0080           0
      1116 WT1      82       TIP3     H2       HT       0.417000        1.0080           0
      1117 WT1      83       TIP3     OH2      OT      -0.834000       15.9994           0
      1118 WT1      83       TIP3     H1       HT       0.417000        1.0080           0
      1119 WT1      83       TIP3     H2       HT       0.417000        1.0080           0
      1120 WT1      84       TIP3     OH2      OT      -0.834000       15.9994           0
      1121 WT1      84       TIP3     H1       HT       0.417000        1.0080           0
      1122 WT1      84       TIP3     H2       HT       0.417000        1.0080           0
      1123 WT1      85       TIP3     OH2      OT      -0.834000       15.9994           0
      1124 WT1      85       TIP3     H1       HT       0.417000        1.0080           0
      1125 WT1      85       TIP3     H2       HT       0.417000        1.0080           0
      1126 WT1      86       TIP3     OH2      OT      -0.834000       15.9994           0
      1127 WT1      86       TIP3     H1       HT       0.417000        1.0080           0
      1128 WT1      86       TIP3     H2       HT       0.417000        1.0080           0
      1129 WT1      87       TIP3     OH2      OT      -0.834000       15.9994           0
      1130 WT1      87       TIP3     H1       HT       0.417000        1.0080           0
      1131 WT1      87       TIP3     H2       HT       0.417000        1.0080           0
      1132 WT1      88       TIP3     OH2      OT      -0.834000       15.9994           0
      1133 WT1      88       TIP3     H1       HT       0.417000        1.0080           0
      1134 WT1      88       TIP3     H2       HT       0.417000        1.0080           0
      1135 WT1      89       TIP3     OH2      OT      -0.834000       15.9994           0
      1136 WT1      89       TIP3     H1       HT       0.417000        1.0080           0
      1137 WT1      89       TIP3     H2       HT       0.417000        1.0080           0
      1138 WT1      90       TIP3     OH2      OT      -0.834000       15.9994           0
      1139 WT1      90       TIP3     H1       HT       0.417000        1.0080           0
      1140 WT1      90       TIP3     H2       HT       0.417000        1.0080           0
      1141 WT1      91       TIP3     OH2      OT      -0.834000       15.9994           0
      1142 WT1      91       TIP3     H1       HT       0.417000        1.0080           0
      1143 WT1      91       TIP3     H2       HT       0.417000        1.0080           0
      1144 WT1      92       TIP3     OH2      OT      -0.834000       15.9994           0
      1145 WT1      92       TIP3     H1       HT       0.417000        1.0080           0
      1146 WT1      92       TIP3     H2       HT       0.417000        1.0080           0
      1147 WT1      93       TIP3     OH2      OT      -0.834000       15.9994           0
      1148 WT1      93       TIP3     H1       HT       0.417000        1.0080           0
      1149 WT1      93       TIP3     H2       HT       0.417000        1.0080           0
      1150 WT1      94       TIP3     OH2      OT      -0.834000       15.9994           0
      1151 WT1      94       TIP3     H1       HT       0.417000        1.0080           0
      1152 WT1      94       TIP3     H2       HT       0.417000        1.0080           0
      1153 WT1      95       TIP3     OH2      OT      -0.834000       15.9994           0
      1154 WT1      95       TIP3     H1       HT       0.417000        1.0080           0
      1155 WT1      95       TIP3     H2       HT       0.417000        1.0080           0
      1156 WT1      96       TIP3     OH2      OT      -0.834000       15.9994           0
      1157 WT1      96       TIP3     H1       HT       0.417000        1.0080           0
      1158 WT1      96       TIP3     H2       HT       0.417000        1.0080           0
      1159 WT1      97       TIP3     OH2      OT      -0.834000       15.9994           0
      1160 WT1      97       TIP3     H1       HT       0.417000        1.0080           0
      1161 WT1      97       TIP3     H2       HT       0.417000        1.0080           0
      1162 WT1      98       TIP3     OH2      OT      -0.834000       15.9994           0
      1163 WT1      98       TIP3     H1       HT       0.417000        1.0080           0
      1164 WT1      98       TIP3     H2       HT       0.417000        1.0080           0
      1165 WT1      99       TIP3     OH2      OT      -0.834000       15.9994           0
      1166 WT1      99       TIP3     H1       HT       0.417000        1.0080           0
      1167 WT1      99       TIP3     H2       HT       0.417000        1.0080           0
      1168 WT1      100      TIP3     OH2      OT      -0.834000       15.9994           0
      1169 WT1      100      TIP3     H1       HT       0.417000        1.0080           0
      1170 WT1      100      TIP3     H2       HT       0.417000        1.0080           0
      1171 WT1      101      TIP3     OH2      OT      -0.834000       15.9994           0
      1172 WT1      101      TIP3     H1       HT       0.417000        1.0080           0
      1173 WT1      101      TIP3     H2       HT       0.417000        1.0080           0
      1174 WT1      102      TIP3     OH2      OT      -0.834000       15.9994           0
      1175 WT1      102      TIP3     H1       HT       0.417000        1.0080           0
      1176 WT1      102      TIP3     H2       HT       0.417000        1.0080           0
      1177 WT1      103      TIP3     OH2      OT      -0.834000       15.9994           0
      1178 WT1      103      TIP3     H1       HT       0.417000        1.0080           0
      1179 WT1      103      TIP3     H2       HT       0.417000        1.0080           0
      1180 WT1      104      TIP3     OH2      OT      -0.834000       15.9994           0
      1181 WT1      104      TIP3     H1       HT       0.417000        1.0080           0
      1182 WT1      104      TIP3     H2       HT       0.417000        1.0080           0
      1183 WT1      105      TIP3     OH2      OT      -0.834000       15.9994           0
      1184 WT1      105      TIP3     H1       HT       0.417000        1.0080           0
      1185 WT1      105      TIP3     H2       HT       0.417000        1.0080           0
      1186 WT1      106      TIP3     OH2      OT      -0.834000       15.9994           0
      1187 WT1      106      TIP3     H1       HT       0.417000        1.0080           0
      1188 WT1      106      TIP3     H2       HT       0.417000        1.0080           0
      1189 WT1      107      TIP3     OH2      OT      -0.834000       15.9994           0
      1190 WT1      107      TIP3     H1       HT       0.417000        1.0080           0
      1191 WT1      107      TIP3     H2       HT       0.417000        1.0080           0
      1192 WT1      108      TIP3     OH2      OT      -0.834000       15.9994           0
      1193 WT1      108      TIP3     H1       HT       0.417000        1.0080           0
      1194 WT1      108      TIP3     H2       HT       0.417000        1.0080           0
      1195 WT1      109      TIP3     OH2      OT      -0.834000       15.9994           0
      1196 WT1      109      TIP3     H1       HT       0.417000        1.0080           0
      1197 WT1      109      TIP3     H2       HT       0.417000        1.0080           0
      1198 WT1      110      TIP3     OH2      OT      -0.834000       15.9994           0
      1199 WT1      110      TIP3     H1       HT       0.417000        1.0080           0
      1200 WT1      110      TIP3     H2       HT       0.417000        1.0080           0
      1201 WT1      111      TIP3     OH2      OT      -0.834000       15.9994           0
      1202 WT1      111      TIP3     H1       HT       0.417000        1.0080           0
      1203 WT1      111      TIP3     H2       HT       0.417000        1.0080           0
      1204 WT1      112      TIP3     OH2      OT      -0.834000       15.9994           0
      1205 WT1      112      TIP3     H1       HT       0.417000        1.0080           0
      1206 WT1      112      TIP3     H2       HT       0.417000        1.0080           0
      1207 WT1      113      TIP3     OH2      OT      -0.834000       15.9994           0
      1208 WT1      113      TIP3     H1       HT       0.417000        1.0080           0
      1209 WT1      113      TIP3     H2       HT       0.417000        1.0080           0
      1210 WT1      114      TIP3     OH2      OT      -0.834000       15.9994           0
      1211 WT1      114      TIP3     H1       HT       0.417000        1.0080           0
      1212 WT1      114      TIP3     H2       HT       0.417000        1.0080           0
      1213 WT1      115      TIP3     OH2      OT      -0.834000       15.9994           0
      1214 WT1      115      TIP3     H1       HT       0.417000        1.0080           0
      1215 WT1      115      TIP3     H2       HT       0.417000        1.0080           0
      1216 WT1      116      TIP3     OH2      OT      -0.834000       15.9994           0
      1217 WT1      116      TIP3     H1       HT       0.417000        1.0080           0
      1218 WT1      116      TIP3     H2       HT       0.417000        1.0080           0
      1219 WT1      117      TIP3     OH2      OT      -0.834000       15.9994           0
      1220 WT1      117      TIP3     H1       HT       0.417000        1.0080           0
      1221 WT1      117      TIP3     H2       HT       0.417000        1.0080           0
      1222 WT1      118      TIP3     OH2      OT      -0.834000       15.9994           0
      1223 WT1      118      TIP3     H1       HT       0.417000        1.0080           0
      1224 WT1      118      TIP3     H2       HT       0.417000        1.0080           0
      1225 WT1      119      TIP3     OH2      OT      -0.834000       15.9994           0
      1226 WT1      119      TIP3     H1       HT       0.417000        1.0080           0
      1227 WT1      119      TIP3     H2       HT       0.417000        1.0080           0
      1228 WT1      120      TIP3     OH2      OT      -0.834000       15.9994           0
      1229 WT1      120      TIP3     H1       HT       0.417000        1.0080           0
      1230 WT1      120      TIP3     H2       HT       0.417000        1.0080           0
      1231 WT1      121      TIP3     OH2      OT      -0.834000       15.9994           0
      1232 WT1      121      TIP3     H1       HT       0.417000        1.0080           0
      1233 WT1      121      TIP3     H2       HT       0.417000        1.0080           0
      1234 WT1      122      TIP3     OH2      OT      -0.834000       15.9994           0
      1235 WT1      122      TIP3     H1       HT       0.417000        1.0080           0
      1236 WT1      122      TIP3     H2       HT       0.417000        1.0080           0
      1237 WT1      123      TIP3     OH2      OT      -0.834000       15.9994           0
      1238 WT1      123      TIP3     H1       HT       0.417000        1.0080           0
      1239 WT1      123      TIP3     H2       HT       0.417000        1.0080           0
      1240 WT1      124      TIP3     OH2      OT      -0.834000       15.9994           0
      1241 WT1      124      TIP3     H1       HT       0.417000        1.0080           0
      1242 WT1      124      TIP3     H2       HT       0.417000        1.0080           0
      1243 WT1      125      TIP3     OH2      OT      -0.834000       15.9994           0
      1244 WT1      125      TIP3     H1       HT       0.417000        1.0080           0
      1245 WT1      125      TIP3     H2       HT       0.417000        1.0080           0
      1246 WT1      126      TIP3     OH2      OT      -0.834000       15.9994           0
      1247 WT1      126      TIP3     H1       HT       0.417000        1.0080           0
      1248 WT1      126      TIP3     H2       HT       0.417000        1.0080           0
      1249 WT1      127      TIP3     OH2      OT      -0.834000       15.9994           0
      1250 WT1      127      TIP3     H1       HT       0.417000        1.0080           0
      1251 WT1      127      TIP3     H2       HT       0.417000        1.0080           0
      1252 WT1      128      TIP3     OH2      OT      -0.834000       15.9994           0
      1253 WT1      128      TIP3     H1       HT       0.417000        1.0080           0
      1254 WT1      128      TIP3     H2       HT       0.417000        1.0080           0
      1255 WT1      129      TIP3     OH2      OT      -0.834000       15.9994           0
      1256 WT1      129      TIP3     H1       HT       0.417000        1.0080           0
      1257 WT1      129      TIP3     H2       HT       0.417000        1.0080           0
      1258 WT1      130      TIP3     OH2      OT      -0.834000       15.9994           0
      1259 WT1      130      TIP3     H1       HT       0.417000        1.0080           0
      1260 WT1      130      TIP3     H2       HT       0.417000        1.0080           0
      1261 WT1      131      TIP3     OH2      OT      -0.834000       15.9994           0
      1262 WT1      131      TIP3     H1       HT       0.417000        1.0080           0
      1263 WT1      131      TIP3     H2       HT       0.417000        1.0080           0
      1264 WT1      132      TIP3     OH2      OT      -0.834000       15.9994           0
      1265 WT1      132      TIP3     H1       HT       0.417000        1.0080           0
      1266 WT1      132      TIP3     H2       HT       0.417000        1.0080           0
      1267 WT1      133      TIP3     OH2      OT      -0.834000       15.9994           0
      1268 WT1      133      TIP3     H1       HT       0.417000        1.0080           0
      1269 WT1      133      TIP3     H2       HT       0.417000        1.0080           0
      1270 WT1      134      TIP3     OH2      OT      -0.834000       15.9994           0
      1271 WT1      134      TIP3     H1       HT       0.417000        1.0080           0
      1272 WT1      134      TIP3     H2       HT       0.417000        1.0080           0
      1273 WT1      135      TIP3     OH2      OT      -0.834000       15.9994           0
      1274 WT1      135      TIP3     H1       HT       0.417000        1.0080           0
      1275 WT1      135      TIP3     H2       HT       0.417000        1.0080           0
      1276 WT1      136      TIP3     OH2      OT      -0.834000       15.9994           0
      1277 WT1      136      TIP3     H1       HT       0.417000        1.0080           0
      1278 WT1      136      TIP3     H2       HT       0.417000        1.0080           0
      1279 WT1      137      TIP3     OH2      OT      -0.834000       15.9994           0
      1280 WT1      137      TIP3     H1       HT       0.417000        1.0080           0
      1281 WT1      137      TIP3     H2       HT       0.417000        1.0080           0
      1282 WT1      138      TIP3     OH2      OT      -0.834000       15.9994           0
      1283 WT1      138      TIP3     H1       HT       0.417000        1.0080           0
      1284 WT1      138      TIP3     H2       HT       0.417000        1.0080           0
      1285 WT1      139      TIP3     OH2      OT      -0.834000       15.9994           0
      1286 WT1      139      TIP3     H1       HT       0.417000        1.0080           0
      1287 WT1      139      TIP3     H2       HT       0.417000        1.0080           0
      1288 WT1      140      TIP3     OH2      OT      -0.834000       15.9994           0
      1289 WT1      140      TIP3     H1       HT       0.417000        1.0080           0
      1290 WT1      140      TIP3     H2       HT       0.417000        1.0080           0
      1291 WT1      141      TIP3     OH2      OT      -0.834000       15.9994           0
      1292 WT1      141      TIP3     H1       HT       0.417000        1.0080           0
      1293 WT1      141      TIP3     H2       HT       0.417000        1.0080           0
      1294 WT1      142      TIP3     OH2      OT      -0.834000       15.9994           0
      1295 WT1      142      TIP3     H1       HT       0.417000        1.0080           0
      1296 WT1      142      TIP3     H2       HT       0.417000        1.0080           0
      1297 WT1      143      TIP3     OH2      OT      -0.834000       15.9994           0
      1298 WT1      143      TIP3     H1       HT       0.417000        1.0080           0
      1299 WT1      143      TIP3     H2       HT       0.417000        1.0080           0
      1300 WT1      144      TIP3     OH2      OT      -0.834000       15.9994           0
      1301 WT1      144      TIP3     H1       HT       0.417000        1.0080           0
      1302 WT1      144      TIP3     H2       HT       0.417000        1.0080           0
      1303 WT1      145      TIP3     OH2      OT      -0.834000       15.9994           0
      1304 WT1      145      TIP3     H1       HT       0.417000        1.0080           0
      1305 WT1      145      TIP3     H2       HT       0.417000        1.0080           0
      1306 WT1      146      TIP3     OH2      OT      -0.834000       15.9994           0
      1307 WT1      146      TIP3     H1       HT       0.417000        1.0080           0
      1308 WT1      146      TIP3     H2       HT       0.417000        1.0080           0
      1309 WT1      147      TIP3     OH2      OT      -0.834000       15.9994           0
      1310 WT1      147      TIP3     H1       HT       0.417000        1.0080           0
      1311 WT1      147      TIP3     H2       HT       0.417000        1.0080           0
      1312 WT1      148      TIP3     OH2      OT      -0.834000       15.9994           0
      1313 WT1      148      TIP3     H1       HT       0.417000        1.0080           0
      1314 WT1      148      TIP3     H2       HT       0.417000        1.0080           0
      1315 WT1      149      TIP3     OH2      OT      -0.834000       15.9994           0
      1316 WT1      149      TIP3     H1       HT       0.417000        1.0080           0
      1317 WT1      149      TIP3     H2       HT       0.417000        1.0080           0
      1318 WT1      150      TIP3     OH2      OT      -0.834000       15.9994           0
      1319 WT1      150      TIP3     H1       HT       0.417000        1.0080           0
      1320 WT1      150      TIP3     H2       HT       0.417000        1.0080           0
      1321 WT1      151      TIP3     OH2      OT      -0.834000       15.9994           0
      1322 WT1      151      TIP3     H1       HT       0.417000        1.0080           0
      1323 WT1      151      TIP3     H2       HT       0.417000        1.0080           0
      1324 WT1      152      TIP3     OH2      OT      -0.834000       15.9994           0
      1325 WT1      152      TIP3     H1       HT       0.417000        1.0080           0
      1326 WT1      152      TIP3     H2       HT       0.417000        1.0080           0
      1327 WT1      153      TIP3     OH2      OT      -0.834000       15.9994           0
      1328 WT1      153      TIP3     H1       HT       0.417000        1.0080           0
      1329 WT1      153      TIP3     H2       HT       0.417000        1.0080           0
      1330 WT1      154      TIP3     OH2      OT      -0.834000       15.9994           0
      1331 WT1      154      TIP3     H1       HT       0.417000        1.0080           0
      1332 WT1      154      TIP3     H2       HT       0.417000        1.0080           0
      1333 WT1      155      TIP3     OH2      OT      -0.834000       15.9994           0
      1334 WT1      155      TIP3     H1       HT       0.417000        1.0080           0
      1335 WT1      155      TIP3     H2       HT       0.417000        1.0080           0
      1336 WT1      156      TIP3     OH2      OT      -0.834000       15.9994           0
      1337 WT1      156      TIP3     H1       HT       0.417000        1.0080           0
      1338 WT1      156      TIP3     H2       HT       0.417000        1.0080           0
      1339 WT1      157      TIP3     OH2      OT      -0.834000       15.9994           0
      1340 WT1      157      TIP3     H1       HT       0.417000        1.0080           0
      1341 WT1      157      TIP3     H2       HT       0.417000        1.0080           0
      1342 WT1      158      TIP3     OH2      OT      -0.834000       15.9994           0
      1343 WT1      158      TIP3     H1       HT       0.417000        1.0080           0
      1344 WT1      158      TIP3     H2       HT       0.417000        1.0080           0
      1345 WT1      159      TIP3     OH2      OT      -0.834000       15.9994           0
      1346 WT1      159      TIP3     H1       HT       0.417000        1.0080           0
      1347 WT1      159      TIP3     H2       HT       0.417000        1.0080           0
      1348 WT1      160      TIP3     OH2      OT      -0.834000       15.9994           0
      1349 WT1      160      TIP3     H1       HT       0.417000        1.0080           0
      1350 WT1      160      TIP3     H2       HT       0.417000        1.0080           0
      1351 WT1      161      TIP3     OH2      OT      -0.834000       15.9994           0
      1352 WT1      161      TIP3     H1       HT       0.417000        1.0080           0
      1353 WT1      161      TIP3     H2       HT       0.417000        1.0080           0
      1354 WT1      162      TIP3     OH2      OT      -0.834000       15.9994           0
      1355 WT1      162      TIP3     H1       HT       0.417000        1.0080           0
      1356 WT1      162      TIP3     H2       HT       0.417000        1.0080           0
      1357 WT1      163      TIP3     OH2      OT      -0.834000       15.9994           0
      1358 WT1      163      TIP3     H1       HT       0.417000        1.0080           0
      1359 WT1      163      TIP3     H2       HT       0.417000        1.0080           0
      1360 WT1      164      TIP3     OH2      OT      -0.834000       15.9994           0
      1361 WT1      164      TIP3     H1       HT       0.417000        1.0080           0
      1362 WT1      164      TIP3     H2       HT       0.417000        1.0080           0
      1363 WT1      165      TIP3     OH2      OT      -0.834000       15.9994           0
      1364 WT1      165      TIP3     H1       HT       0.417000        1.0080           0
      1365 WT1      165      TIP3     H2       HT       0.417000        1.0080           0
      1366 WT1      166      TIP3     OH2      OT      -0.834000       15.9994           0
      1367 WT1      166      TIP3     H1       HT       0.417000        1.0080           0
      1368 WT1      166      TIP3     H2       HT       0.417000        1.0080           0
      1369 WT1      167      TIP3     OH2      OT      -0.834000       15.9994           0
      1370 WT1      167      TIP3     H1       HT       0.417000        1.0080           0
      1371 WT1      167      TIP3     H2       HT       0.417000        1.0080           0
      1372 WT1      168      TIP3     OH2      OT      -0.834000       15.9994           0
      1373 WT1      168      TIP3     H1       HT       0.417000        1.0080           0
      1374 WT1      168      TIP3     H2       HT       0.417000        1.0080           0
      1375 WT1      169      TIP3     OH2      OT      -0.834000       15.9994           0
      1376 WT1      169      TIP3     H1       HT       0.417000        1.0080           0
      1377 WT1      169      TIP3     H2       HT       0.417000        1.0080           0
      1378 WT1      170      TIP3     OH2      OT      -0.834000       15.9994           0
      1379 WT1      170      TIP3     H1       HT       0.417000        1.0080           0
      1380 WT1      170      TIP3     H2       HT       0.417000        1.0080           0
      1381 WT1      171      TIP3     OH2      OT      -0.834000       15.9994           0
      1382 WT1      171      TIP3     H1       HT       0.417000        1.0080           0
      1383 WT1      171      TIP3     H2       HT       0.417000        1.0080           0
      1384 WT1      172      TIP3     OH2      OT      -0.834000       15.9994           0
      1385 WT1      172      TIP3     H1       HT       0.417000        1.0080           0
      1386 WT1      172      TIP3     H2       HT       0.417000        1.0080           0
      1387 WT1      173      TIP3     OH2      OT      -0.834000       15.9994           0
      1388 WT1      173      TIP3     H1       HT       0.417000        1.0080           0
      1389 WT1      173      TIP3     H2       HT       0.417000        1.0080           0
      1390 WT1      174      TIP3     OH2      OT      -0.834000       15.9994           0
      1391 WT1      174      TIP3     H1       HT       0.417000        1.0080           0
      1392 WT1      174      TIP3     H2       HT       0.417000        1.0080           0
      1393 WT1      176      TIP3     OH2      OT      -0.834000       15.9994           0
      1394 WT1      176      TIP3     H1       HT       0.417000        1.0080           0
      1395 WT1      176      TIP3     H2       HT       0.417000        1.0080           0
      1396 WT1      177      TIP3     OH2      OT      -0.834000       15.9994           0
      1397 WT1      177      TIP3     H1       HT       0.417000        1.0080           0
      1398 WT1      177      TIP3     H2       HT       0.417000        1.0080           0
      1399 WT1      178      TIP3     OH2      OT      -0.834000       15.9994           0
      1400 WT1      178      TIP3     H1       HT       0.417000        1.0080           0
      1401 WT1      178      TIP3     H2       HT       0.417000        1.0080           0
      1402 WT1      179      TIP3     OH2      OT      -0.834000       15.9994           0
      1403 WT1      179      TIP3     H1       HT       0.417000        1.0080           0
      1404 WT1      179      TIP3     H2       HT       0.417000        1.0080           0
      1405 WT1      180      TIP3     OH2      OT      -0.834000       15.9994           0
      1406 WT1      180      TIP3     H1       HT       0.417000        1.0080           0
      1407 WT1      180      TIP3     H2       HT       0.417000        1.0080           0
      1408 WT1      181      TIP3     OH2      OT      -0.834000       15.9994           0
      1409 WT1      181      TIP3     H1       HT       0.417000        1.0080           0
      1410 WT1      181      TIP3     H2       HT       0.417000        1.0080           0
      1411 WT1      182      TIP3     OH2      OT      -0.834000       15.9994           0
      1412 WT1      182      TIP3     H1       HT       0.417000        1.0080           0
      1413 WT1      182      TIP3     H2       HT       0.417000        1.0080           0
      1414 WT1      183      TIP3     OH2      OT      -0.834000       15.9994           0
      1415 WT1      183      TIP3     H1       HT       0.417000        1.0080           0
      1416 WT1      183      TIP3     H2       HT       0.417000        1.0080           0
      1417 WT1      184      TIP3     OH2      OT      -0.834000       15.9994           0
      1418 WT1      184      TIP3     H1       HT       0.417000        1.0080           0
      1419 WT1      184      TIP3     H2       HT       0.417000        1.0080           0
      1420 WT1      185      TIP3     OH2      OT      -0.834000       15.9994           0
      1421 WT1      185      TIP3     H1       HT       0.417000        1.0080           0
      1422 WT1      185      TIP3     H2       HT       0.417000        1.0080           0
      1423 WT1      186      TIP3     OH2      OT      -0.834000       15.9994           0
      1424 WT1      186      TIP3     H1       HT       0.417000        1.0080           0
      1425 WT1      186      TIP3     H2       HT       0.417000        1.0080           0
      1426 WT1      187      TIP3     OH2      OT      -0.834000       15.9994           0
      1427 WT1      187      TIP3     H1       HT       0.417000        1.0080           0
      1428 WT1      187      TIP3     H2       HT       0.417000        1.0080           0
      1429 WT1      188      TIP3     OH2      OT      -0.834000       15.9994           0
      1430 WT1      188      TIP3     H1       HT       0.417000        1.0080           0
      1431 WT1      188      TIP3     H2       HT       0.417000        1.0080           0
      1432 WT1      190      TIP3     OH2      OT      -0.834000       15.9994           0
      1433 WT1      190      TIP3     H1       HT       0.417000        1.0080           0
      1434 WT1      190      TIP3     H2       HT       0.417000        1.0080           0
      1435 WT1      191      TIP3     OH2      OT      -0.834000       15.9994           0
      1436 WT1      191      TIP3     H1       HT       0.417000        1.0080           0
      1437 WT1      191      TIP3     H2       HT       0.417000        1.0080           0
      1438 WT1      192      TIP3     OH2      OT      -0.834000       15.9994           0
      1439 WT1      192      TIP3     H1       HT       0.417000        1.0080           0
      1440 WT1      192      TIP3     H2       HT       0.417000        1.0080           0
      1441 WT1      193      TIP3     OH2      OT      -0.834000       15.9994           0
      1442 WT1      193      TIP3     H1       HT       0.417000        1.0080           0
      1443 WT1      193      TIP3     H2       HT       0.417000        1.0080           0
      1444 WT1      195      TIP3     OH2      OT      -0.834000       15.9994           0
      1445 WT1      195      TIP3     H1       HT       0.417000        1.0080           0
      1446 WT1      195      TIP3     H2       HT       0.417000        1.0080           0
      1447 WT1      196      TIP3     OH2      OT      -0.834000       15.9994           0
      1448 WT1      196      TIP3     H1       HT       0.417000        1.0080           0
      1449 WT1      196      TIP3     H2       HT       0.417000        1.0080           0
      1450 WT1      197      TIP3     OH2      OT      -0.834000       15.9994           0
      1451 WT1      197      TIP3     H1       HT       0.417000        1.0080           0
      1452 WT1      197      TIP3     H2       HT       0.417000        1.0080           0
      1453 WT1      198      TIP3     OH2      OT      -0.834000       15.9994           0
      1454 WT1      198      TIP3     H1       HT       0.417000        1.0080           0
      1455 WT1      198      TIP3     H2       HT       0.417000        1.0080           0
      1456 WT1      199      TIP3     OH2      OT      -0.834000       15.9994           0
      1457 WT1      199      TIP3     H1       HT       0.417000        1.0080           0
      1458 WT1      199      TIP3     H2       HT       0.417000        1.0080           0
      1459 WT1      200      TIP3     OH2      OT      -0.834000       15.9994           0
      1460 WT1      200      TIP3     H1       HT       0.417000        1.0080           0
      1461 WT1      200      TIP3     H2       HT       0.417000        1.0080           0
      1462 WT1      201      TIP3     OH2      OT      -0.834000       15.9994           0
      1463 WT1      201      TIP3     H1       HT       0.417000        1.0080           0
      1464 WT1      201      TIP3     H2       HT       0.417000        1.0080           0
      1465 WT1      202      TIP3     OH2      OT      -0.834000       15.9994           0
      1466 WT1      202      TIP3     H1       HT       0.417000        1.0080           0
      1467 WT1      202      TIP3     H2       HT       0.417000        1.0080           0
      1468 WT1      203      TIP3     OH2      OT      -0.834000       15.9994           0
      1469 WT1      203      TIP3     H1       HT       0.417000        1.0080           0
      1470 WT1      203      TIP3     H2       HT       0.417000        1.0080           0
      1471 WT1      204      TIP3     OH2      OT      -0.834000       15.9994           0
      1472 WT1      204      TIP3     H1       HT       0.417000        1.0080           0
      1473 WT1      204      TIP3     H2       HT       0.417000        1.0080           0
      1474 WT1      205      TIP3     OH2      OT      -0.834000       15.9994           0
      1475 WT1      205      TIP3     H1       HT       0.417000        1.0080           0
      1476 WT1      205      TIP3     H2       HT       0.417000        1.0080           0
      1477 WT1      206      TIP3     OH2      OT      -0.834000       15.9994           0
      1478 WT1      206      TIP3     H1       HT       0.417000        1.0080           0
      1479 WT1      206      TIP3     H2       HT       0.417000        1.0080           0
      1480 WT1      207      TIP3     OH2      OT      -0.834000       15.9994           0
      1481 WT1      207      TIP3     H1       HT       0.417000        1.0080           0
      1482 WT1      207      TIP3     H2       HT       0.417000        1.0080           0
      1483 WT1      208      TIP3     OH2      OT      -0.834000       15.9994           0
      1484 WT1      208      TIP3     H1       HT       0.417000        1.0080           0
      1485 WT1      208      TIP3     H2       HT       0.417000        1.0080           0
      1486 WT1      209      TIP3     OH2      OT      -0.834000       15.9994           0
      1487 WT1      209      TIP3     H1       HT       0.417000        1.0080           0
      1488 WT1      209      TIP3     H2       HT       0.417000        1.0080           0
      1489 WT1      210      TIP3     OH2      OT      -0.834000       15.9994           0
      1490 WT1      210      TIP3     H1       HT       0.417000        1.0080           0
      1491 WT1      210      TIP3     H2       HT       0.417000        1.0080           0
      1492 WT1      211      TIP3     OH2      OT      -0.834000       15.9994           0
      1493 WT1      211      TIP3     H1       HT       0.417000        1.0080           0
      1494 WT1      211      TIP3     H2       HT       0.417000        1.0080           0
      1495 WT1      212      TIP3     OH2      OT      -0.834000       15.9994           0
      1496 WT1      212      TIP3     H1       HT       0.417000        1.0080           0
      1497 WT1      212      TIP3     H2       HT       0.417000        1.0080           0
      1498 WT1      213      TIP3     OH2      OT      -0.834000       15.9994           0
      1499 WT1      213      TIP3     H1       HT       0.417000        1.0080           0
      1500 WT1      213      TIP3     H2       HT       0.417000        1.0080           0
      1501 WT1      214      TIP3     OH2      OT      -0.834000       15.9994           0
      1502 WT1      214      TIP3     H1       HT       0.417000        1.0080           0
      1503 WT1      214      TIP3     H2       HT       0.417000        1.0080           0
      1504 WT1      215      TIP3     OH2      OT      -0.834000       15.9994           0
      1505 WT1      215      TIP3     H1       HT       0.417000        1.0080           0
      1506 WT1      215      TIP3     H2       HT       0.417000        1.0080           0
      1507 WT1      216      TIP3     OH2      OT      -0.834000       15.9994           0
      1508 WT1      216      TIP3     H1       HT       0.417000        1.0080           0
      1509 WT1      216      TIP3     H2       HT       0.417000        1.0080           0
      1510 WT1      217      TIP3     OH2      OT      -0.834000       15.9994           0
      1511 WT1      217      TIP3     H1       HT       0.417000        1.0080           0
      1512 WT1      217      TIP3     H2       HT       0.417000        1.0080           0
      1513 WT1      218      TIP3     OH2      OT      -0.834000       15.9994           0
      1514 WT1      218      TIP3     H1       HT       0.417000        1.0080           0
      1515 WT1      218      TIP3     H2       HT       0.417000        1.0080           0
      1516 WT1      219      TIP3     OH2      OT      -0.834000       15.9994           0
      1517 WT1      219      TIP3     H1       HT       0.417000        1.0080           0
      1518 WT1      219      TIP3     H2       HT       0.417000        1.0080           0
      1519 WT1      220      TIP3     OH2      OT      -0.834000       15.9994           0
      1520 WT1      220      TIP3     H1       HT       0.417000        1.0080           0
      1521 WT1      220      TIP3     H2       HT       0.417000        1.0080           0
      1522 WT1      221      TIP3     OH2      OT      -0.834000       15.9994           0
      1523 WT1      221      TIP3     H1       HT       0.417000        1.0080           0
      1524 WT1      221      TIP3     H2       HT       0.417000        1.0080           0
      1525 WT1      222      TIP3     OH2      OT      -0.834000       15.9994           0
      1526 WT1      222      TIP3     H1       HT       0.417000        1.0080           0
      1527 WT1      222      TIP3     H2       HT       0.417000        1.0080           0
      1528 WT1      223      TIP3     OH2      OT      -0.834000       15.9994           0
      1529 WT1      223      TIP3     H1       HT       0.417000        1.0080           0
      1530 WT1      223      TIP3     H2       HT       0.417000        1.0080           0
      1531 WT1      224      TIP3     OH2      OT      -0.834000       15.9994           0
      1532 WT1      224      TIP3     H1       HT       0.417000        1.0080           0
      1533 WT1      224      TIP3     H2       HT       0.417000        1.0080           0
      1534 WT1      225      TIP3     OH2      OT      -0.834000       15.9994           0
      1535 WT1      225      TIP3     H1       HT       0.417000        1.0080           0
      1536 WT1      225      TIP3     H2       HT       0.417000        1.0080           0
      1537 WT1      226      TIP3     OH2      OT      -0.834000       15.9994           0
      1538 WT1      226      TIP3     H1       HT       0.417000        1.0080           0
      1539 WT1      226      TIP3     H2       HT       0.417000        1.0080           0
      1540 WT1      227      TIP3     OH2      OT      -0.834000       15.9994           0
      1541 WT1      227      TIP3     H1       HT       0.417000        1.0080           0
      1542 WT1      227      TIP3     H2       HT       0.417000        1.0080           0
      1543 WT1      228      TIP3     OH2      OT      -0.834000       15.9994           0
      1544 WT1      228      TIP3     H1       HT       0.417000        1.0080           0
      1545 WT1      228      TIP3     H2       HT       0.417000        1.0080           0
      1546 WT1      229      TIP3     OH2      OT      -0.834000       15.9994           0
      1547 WT1      229      TIP3     H1       HT       0.417000        1.0080           0
      1548 WT1      229      TIP3     H2       HT       0.417000        1.0080           0
      1549 WT1      230      TIP3     OH2      OT      -0.834000       15.9994           0
      1550 WT1      230      TIP3     H1       HT       0.417000        1.0080           0
      1551 WT1      230      TIP3     H2       HT       0.417000        1.0080           0
      1552 WT1      231      TIP3     OH2      OT      -0.834000       15.9994           0
      1553 WT1      231      TIP3     H1       HT       0.417000        1.0080           0
      1554 WT1      231      TIP3     H2       HT       0.417000        1.0080           0
      1555 WT1      232      TIP3     OH2      OT      -0.834000       15.9994           0
      1556 WT1      232      TIP3     H1       HT       0.417000        1.0080           0
      1557 WT1      232      TIP3     H2       HT       0.417000        1.0080           0
      1558 WT1      233      TIP3     OH2      OT      -0.834000       15.9994           0
      1559 WT1      233      TIP3     H1       HT       0.417000        1.0080           0
      1560 WT1      233      TIP3     H2       HT       0.417000        1.0080           0
      1561 WT1      234      TIP3     OH2      OT      -0.834000       15.9994           0
      1562 WT1      234      TIP3     H1       HT       0.417000        1.0080           0
      1563 WT1      234      TIP3     H2       HT       0.417000        1.0080           0
      1564 WT1      235      TIP3     OH2      OT      -0.834000       15.9994           0
      1565 WT1      235      TIP3     H1       HT       0.417000        1.0080           0
      1566 WT1      235      TIP3     H2       HT       0.417000        1.0080           0
      1567 WT1      236      TIP3     OH2      OT      -0.834000       15.9994           0
      1568 WT1      236      TIP3     H1       HT       0.417000        1.0080           0
      1569 WT1      236      TIP3     H2       HT       0.417000        1.0080           0
      1570 WT1      237      TIP3     OH2      OT      -0.834000       15.9994           0
      1571 WT1      237      TIP3     H1       HT       0.417000        1.0080           0
      1572 WT1      237      TIP3     H2       HT       0.417000        1.0080           0
      1573 WT1      238      TIP3     OH2      OT      -0.834000       15.9994           0
      1574 WT1      238      TIP3     H1       HT       0.417000        1.0080           0
      1575 WT1      238      TIP3     H2       HT       0.417000        1.0080           0
      1576 WT1      239      TIP3     OH2      OT      -0.834000       15.9994           0
      1577 WT1      239      TIP3     H1       HT       0.417000        1.0080           0
      1578 WT1      239      TIP3     H2       HT       0.417000        1.0080           0
      1579 WT1      240      TIP3     OH2      OT      -0.834000       15.9994           0
      1580 WT1      240      TIP3     H1       HT       0.417000        1.0080           0
      1581 WT1      240      TIP3     H2       HT       0.417000        1.0080           0
      1582 WT1      241      TIP3     OH2      OT      -0.834000       15.9994           0
      1583 WT1      241      TIP3     H1       HT       0.417000        1.0080           0
      1584 WT1      241      TIP3     H2       HT       0.417000        1.0080           0
      1585 WT1      242      TIP3     OH2      OT      -0.834000       15.9994           0
      1586 WT1      242      TIP3     H1       HT       0.417000        1.0080           0
      1587 WT1      242      TIP3     H2       HT       0.417000        1.0080           0
      1588 WT1      243      TIP3     OH2      OT      -0.834000       15.9994           0
      1589 WT1      243      TIP3     H1       HT       0.417000        1.0080           0
      1590 WT1      243      TIP3     H2       HT       0.417000        1.0080           0
      1591 WT1      244      TIP3     OH2      OT      -0.834000       15.9994           0
      1592 WT1      244      TIP3     H1       HT       0.417000        1.0080           0
      1593 WT1      244      TIP3     H2       HT       0.417000        1.0080           0
      1594 WT1      245      TIP3     OH2      OT      -0.834000       15.9994           0
      1595 WT1      245      TIP3     H1       HT       0.417000        1.0080           0
      1596 WT1      245      TIP3     H2       HT       0.417000        1.0080           0
      1597 WT1      246      TIP3     OH2      OT      -0.834000       15.9994           0
      1598 WT1      246      TIP3     H1       HT       0.417000        1.0080           0
      1599 WT1      246      TIP3     H2       HT       0.417000        1.0080           0
      1600 WT1      247      TIP3     OH2      OT      -0.834000       15.9994           0
      1601 WT1      247      TIP3     H1       HT       0.417000        1.0080           0
      1602 WT1      247      TIP3     H2       HT       0.417000        1.0080           0
      1603 WT1      248      TIP3     OH2      OT      -0.834000       15.9994           0
      1604 WT1      248      TIP3     H1       HT       0.417000        1.0080           0
      1605 WT1      248      TIP3     H2       HT       0.417000        1.0080           0
      1606 WT1      249      TIP3     OH2      OT      -0.834000       15.9994           0
      1607 WT1      249      TIP3     H1       HT       0.417000        1.0080           0
      1608 WT1      249      TIP3     H2       HT       0.417000        1.0080           0
      1609 WT1      250      TIP3     OH2      OT      -0.834000       15.9994           0
      1610 WT1      250      TIP3     H1       HT       0.417000        1.0080           0
      1611 WT1      250      TIP3     H2       HT       0.417000        1.0080           0
      1612 WT1      251      TIP3     OH2      OT      -0.834000       15.9994           0
      1613 WT1      251      TIP3     H1       HT       0.417000        1.0080           0
      1614 WT1      251      TIP3     H2       HT       0.417000        1.0080           0
      1615 WT1      252      TIP3     OH2      OT      -0.834000       15.9994           0
      1616 WT1      252      TIP3     H1       HT       0.417000        1.0080           0
      1617 WT1      252      TIP3     H2       HT       0.417000        1.0080           0
      1618 WT1      253      TIP3     OH2      OT      -0.834000       15.9994           0
      1619 WT1      253      TIP3     H1       HT       0.417000        1.0080           0
      1620 WT1      253      TIP3     H2       HT       0.417000        1.0080           0
      1621 WT1      254      TIP3     OH2      OT      -0.834000       15.9994           0
      1622 WT1      254      TIP3     H1       HT       0.417000        1.0080           0
      1623 WT1      254      TIP3     H2       HT       0.417000        1.0080           0
      1624 WT1      255      TIP3     OH2      OT      -0.834000       15.9994           0
      1625 WT1      255      TIP3     H1       HT       0.417000        1.0080           0
      1626 WT1      255      TIP3     H2       HT       0.417000        1.0080           0
      1627 WT1      256      TIP3     OH2      OT      -0.834000       15.9994           0
      1628 WT1      256      TIP3     H1       HT       0.417000        1.0080           0
      1629 WT1      256      TIP3     H2       HT       0.417000        1.0080           0
      1630 WT1      257      TIP3     OH2      OT      -0.834000       15.9994           0
      1631 WT1      257      TIP3     H1       HT       0.417000        1.0080           0
      1632 WT1      257      TIP3     H2       HT       0.417000        1.0080           0
      1633 WT1      258      TIP3     OH2      OT      -0.834000       15.9994           0
      1634 WT1      258      TIP3     H1       HT       0.417000        1.0080           0
      1635 WT1      258      TIP3     H2       HT       0.417000        1.0080           0
      1636 WT1      259      TIP3     OH2      OT      -0.834000       15.9994           0
      1637 WT1      259      TIP3     H1       HT       0.417000        1.0080           0
      1638 WT1      259      TIP3     H2       HT       0.417000        1.0080           0
      1639 WT1      260      TIP3     OH2      OT      -0.834000       15.9994           0
      1640 WT1      260      TIP3     H1       HT       0.417000        1.0080           0
      1641 WT1      260      TIP3     H2       HT       0.417000        1.0080           0
      1642 WT1      261      TIP3     OH2      OT      -0.834000       15.9994           0
      1643 WT1      261      TIP3     H1       HT       0.417000        1.0080           0
      1644 WT1      261      TIP3     H2       HT       0.417000        1.0080           0
      1645 WT1      262      TIP3     OH2      OT      -0.834000       15.9994           0
      1646 WT1      262      TIP3     H1       HT       0.417000        1.0080           0
      1647 WT1      262      TIP3     H2       HT       0.417000        1.0080           0
      1648 WT1      263      TIP3     OH2      OT      -0.834000       15.9994           0
      1649 WT1      263      TIP3     H1       HT       0.417000        1.0080           0
      1650 WT1      263      TIP3     H2       HT       0.417000        1.0080           0
      1651 WT1      264      TIP3     OH2      OT      -0.834000       15.9994           0
      1652 WT1      264      TIP3     H1       HT       0.417000        1.0080           0
      1653 WT1      264      TIP3     H2       HT       0.417000        1.0080           0
      1654 WT1      265      TIP3     OH2      OT      -0.834000       15.9994           0
      1655 WT1      265      TIP3     H1       HT       0.417000        1.0080           0
      1656 WT1      265      TIP3     H2       HT       0.417000        1.0080           0
      1657 WT1      266      TIP3     OH2      OT      -0.834000       15.9994           0
      1658 WT1      266      TIP3     H1       HT       0.417000        1.0080           0
      1659 WT1      266      TIP3     H2       HT       0.417000        1.0080           0
      1660 WT1      267      TIP3     OH2      OT      -0.834000       15.9994           0
      1661 WT1      267      TIP3     H1       HT       0.417000        1.0080           0
      1662 WT1      267      TIP3     H2       HT       0.417000        1.0080           0
      1663 WT1      268      TIP3     OH2      OT      -0.834000       15.9994           0
      1664 WT1      268      TIP3     H1       HT       0.417000        1.0080           0
      1665 WT1      268      TIP3     H2       HT       0.417000        1.0080           0
      1666 WT1      269      TIP3     OH2      OT      -0.834000       15.9994           0
      1667 WT1      269      TIP3     H1       HT       0.417000        1.0080           0
      1668 WT1      269      TIP3     H2       HT       0.417000        1.0080           0
      1669 WT1      270      TIP3     OH2      OT      -0.834000       15.9994           0
      1670 WT1      270      TIP3     H1       HT       0.417000        1.0080           0
      1671 WT1      270      TIP3     H2       HT       0.417000        1.0080           0
      1672 WT1      271      TIP3     OH2      OT      -0.834000       15.9994           0
      1673 WT1      271      TIP3     H1       HT       0.417000        1.0080           0
      1674 WT1      271      TIP3     H2       HT       0.417000        1.0080           0
      1675 WT1      272      TIP3     OH2      OT      -0.834000       15.9994           0
      1676 WT1      272      TIP3     H1       HT       0.417000        1.0080           0
      1677 WT1      272      TIP3     H2       HT       0.417000        1.0080           0
      1678 WT1      273      TIP3     OH2      OT      -0.834000       15.9994           0
      1679 WT1      273      TIP3     H1       HT       0.417000        1.0080           0
      1680 WT1      273      TIP3     H2       HT       0.417000        1.0080           0
      1681 WT1      274      TIP3     OH2      OT      -0.834000       15.9994           0
      1682 WT1      274      TIP3     H1       HT       0.417000        1.0080           0
      1683 WT1      274      TIP3     H2       HT       0.417000        1.0080           0
      1684 WT1      275      TIP3     OH2      OT      -0.834000       15.9994           0
      1685 WT1      275      TIP3     H1       HT       0.417000        1.0080           0
      1686 WT1      275      TIP3     H2       HT       0.417000        1.0080           0
      1687 WT1      276      TIP3     OH2      OT      -0.834000       15.9994           0
      1688 WT1      276      TIP3     H1       HT       0.417000        1.0080           0
      1689 WT1      276      TIP3     H2       HT       0.417000        1.0080           0
      1690 WT1      277      TIP3     OH2      OT      -0.834000       15.9994           0
      1691 WT1      277      TIP3     H1       HT       0.417000        1.0080           0
      1692 WT1      277      TIP3     H2       HT       0.417000        1.0080           0
      1693 WT1      278      TIP3     OH2      OT      -0.834000       15.9994           0
      1694 WT1      278      TIP3     H1       HT       0.417000        1.0080           0
      1695 WT1      278      TIP3     H2       HT       0.417000        1.0080           0
      1696 WT1      279      TIP3     OH2      OT      -0.834000       15.9994           0
      1697 WT1      279      TIP3     H1       HT       0.417000        1.0080           0
      1698 WT1      279      TIP3     H2       HT       0.417000        1.0080           0
      1699 WT1      280      TIP3     OH2      OT      -0.834000       15.9994           0
      1700 WT1      280      TIP3     H1       HT       0.417000        1.0080           0
      1701 WT1      280      TIP3     H2       HT       0.417000        1.0080           0
      1702 WT1      281      TIP3     OH2      OT      -0.834000       15.9994           0
      1703 WT1      281      TIP3     H1       HT       0.417000        1.0080           0
      1704 WT1      281      TIP3     H2       HT       0.417000        1.0080           0
      1705 WT1      282      TIP3     OH2      OT      -0.834000       15.9994           0
      1706 WT1      282      TIP3     H1       HT       0.417000        1.0080           0
      1707 WT1      282      TIP3     H2       HT       0.417000        1.0080           0
      1708 WT1      283      TIP3     OH2      OT      -0.834000       15.9994           0
      1709 WT1      283      TIP3     H1       HT       0.417000        1.0080           0
      1710 WT1      283      TIP3     H2       HT       0.417000        1.0080           0
      1711 WT1      284      TIP3     OH2      OT      -0.834000       15.9994           0
      1712 WT1      284      TIP3     H1       HT       0.417000        1.0080           0
      1713 WT1      284      TIP3     H2       HT       0.417000        1.0080           0
      1714 WT1      285      TIP3     OH2      OT      -0.834000       15.9994           0
      1715 WT1      285      TIP3     H1       HT       0.417000        1.0080           0
      1716 WT1      285      TIP3     H2       HT       0.417000        1.0080           0
      1717 WT1      286      TIP3     OH2      OT      -0.834000       15.9994           0
      1718 WT1      286      TIP3     H1       HT       0.417000        1.0080           0
      1719 WT1      286      TIP3     H2       HT       0.417000        1.0080           0
      1720 WT1      287      TIP3     OH2      OT      -0.834000       15.9994           0
      1721 WT1      287      TIP3     H1       HT       0.417000        1.0080           0
      1722 WT1      287      TIP3     H2       HT       0.417000        1.0080           0
      1723 WT1      288      TIP3     OH2      OT      -0.834000       15.9994           0
      1724 WT1      288      TIP3     H1       HT       0.417000        1.0080           0
      1725 WT1      288      TIP3     H2       HT       0.417000        1.0080           0
      1726 WT1      289      TIP3     OH2      OT      -0.834000       15.9994           0
      1727 WT1      289      TIP3     H1       HT       0.417000        1.0080           0
      1728 WT1      289      TIP3     H2       HT       0.417000        1.0080           0
      1729 WT1      290      TIP3     OH2      OT      -0.834000       15.9994           0
      1730 WT1      290      TIP3     H1       HT       0.417000        1.0080           0
      1731 WT1      290      TIP3     H2       HT       0.417000        1.0080           0
      1732 WT1      291      TIP3     OH2      OT      -0.834000       15.9994           0
      1733 WT1      291      TIP3     H1       HT       0.417000        1.0080           0
      1734 WT1      291      TIP3     H2       HT       0.417000        1.0080           0
      1735 WT1      292      TIP3     OH2      OT      -0.834000       15.9994           0
      1736 WT1      292      TIP3     H1       HT       0.417000        1.0080           0
      1737 WT1      292      TIP3     H2       HT       0.417000        1.0080           0
      1738 WT1      293      TIP3     OH2      OT      -0.834000       15.9994           0
      1739 WT1      293      TIP3     H1       HT       0.417000        1.0080           0
      1740 WT1      293      TIP3     H2       HT       0.417000        1.0080           0
      1741 WT1      294      TIP3     OH2      OT      -0.834000       15.9994           0
      1742 WT1      294      TIP3     H1       HT       0.417000        1.0080           0
      1743 WT1      294      TIP3     H2       HT       0.417000        1.0080           0
      1744 WT1      295      TIP3     OH2      OT      -0.834000       15.9994           0
      1745 WT1      295      TIP3     H1       HT       0.417000        1.0080           0
      1746 WT1      295      TIP3     H2       HT       0.417000        1.0080           0
      1747 WT1      296      TIP3     OH2      OT      -0.834000       15.9994           0
      1748 WT1      296      TIP3     H1       HT       0.417000        1.0080           0
      1749 WT1      296      TIP3     H2       HT       0.417000        1.0080           0
      1750 WT1      297      TIP3     OH2      OT      -0.834000       15.9994           0
      1751 WT1      297      TIP3     H1       HT       0.417000        1.0080           0
      1752 WT1      297      TIP3     H2       HT       0.417000        1.0080           0
      1753 WT1      298      TIP3     OH2      OT      -0.834000       15.9994           0
      1754 WT1      298      TIP3     H1       HT       0.417000        1.0080           0
      1755 WT1      298      TIP3     H2       HT       0.417000        1.0080           0
      1756 WT1      299      TIP3     OH2      OT      -0.834000       15.9994           0
      1757 WT1      299      TIP3     H1       HT       0.417000        1.0080           0
      1758 WT1      299      TIP3     H2       HT       0.417000        1.0080           0
      1759 WT1      300      TIP3     OH2      OT      -0.834000       15.9994           0
      1760 WT1      300      TIP3     H1       HT       0.417000        1.0080           0
      1761 WT1      300      TIP3     H2       HT       0.417000        1.0080           0
      1762 WT1      301      TIP3     OH2      OT      -0.834000       15.9994           0
      1763 WT1      301      TIP3     H1       HT       0.417000        1.0080           0
      1764 WT1      301      TIP3     H2       HT       0.417000        1.0080           0
      1765 WT1      302      TIP3     OH2      OT      -0.834000       15.9994           0
      1766 WT1      302      TIP3     H1       HT       0.417000        1.0080           0
      1767 WT1      302      TIP3     H2       HT       0.417000        1.0080           0
      1768 WT1      303      TIP3     OH2      OT      -0.834000       15.9994           0
      1769 WT1      303      TIP3     H1       HT       0.417000        1.0080           0
      1770 WT1      303      TIP3     H2       HT       0.417000        1.0080           0
      1771 WT1      304      TIP3     OH2      OT      -0.834000       15.9994           0
      1772 WT1      304      TIP3     H1       HT       0.417000        1.0080           0
      1773 WT1      304      TIP3     H2       HT       0.417000        1.0080           0
      1774 WT1      305      TIP3     OH2      OT      -0.834000       15.9994           0
      1775 WT1      305      TIP3     H1       HT       0.417000        1.0080           0
      1776 WT1      305      TIP3     H2       HT       0.417000        1.0080           0
      1777 WT1      306      TIP3     OH2      OT      -0.834000       15.9994           0
      1778 WT1      306      TIP3     H1       HT       0.417000        1.0080           0
      1779 WT1      306      TIP3     H2       HT       0.417000        1.0080           0
      1780 WT1      307      TIP3     OH2      OT      -0.834000       15.9994           0
      1781 WT1      307      TIP3     H1       HT       0.417000        1.0080           0
      1782 WT1      307      TIP3     H2       HT       0.417000        1.0080           0
      1783 WT1      308      TIP3     OH2      OT      -0.834000       15.9994           0
      1784 WT1      308      TIP3     H1       HT       0.417000        1.0080           0
      1785 WT1      308      TIP3     H2       HT       0.417000        1.0080           0
      1786 WT1      309      TIP3     OH2      OT      -0.834000       15.9994           0
      1787 WT1      309      TIP3     H1       HT       0.417000        1.0080           0
      1788 WT1      309      TIP3     H2       HT       0.417000        1.0080           0
      1789 WT1      310      TIP3     OH2      OT      -0.834000       15.9994           0
      1790 WT1      310      TIP3     H1       HT       0.417000        1.0080           0
      1791 WT1      310      TIP3     H2       HT       0.417000        1.0080           0
      1792 WT1      311      TIP3     OH2      OT      -0.834000       15.9994           0
      1793 WT1      311      TIP3     H1       HT       0.417000        1.0080           0
      1794 WT1      311      TIP3     H2       HT       0.417000        1.0080           0
      1795 WT1      312      TIP3     OH2      OT      -0.834000       15.9994           0
      1796 WT1      312      TIP3     H1       HT       0.417000        1.0080           0
      1797 WT1      312      TIP3     H2       HT       0.417000        1.0080           0
      1798 WT1      313      TIP3     OH2      OT      -0.834000       15.9994           0
      1799 WT1      313      TIP3     H1       HT       0.417000        1.0080           0
      1800 WT1      313      TIP3     H2       HT       0.417000        1.0080           0
      1801 WT1      314      TIP3     OH2      OT      -0.834000       15.9994           0
      1802 WT1      314      TIP3     H1       HT       0.417000        1.0080           0
      1803 WT1      314      TIP3     H2       HT       0.417000        1.0080           0
      1804 WT1      316      TIP3     OH2      OT      -0.834000       15.9994           0
      1805 WT1      316      TIP3     H1       HT       0.417000        1.0080           0
      1806 WT1      316      TIP3     H2       HT       0.417000        1.0080           0
      1807 WT1      317      TIP3     OH2      OT      -0.834000       15.9994           0
      1808 WT1      317      TIP3     H1       HT       0.417000        1.0080           0
      1809 WT1      317      TIP3     H2       HT       0.417000        1.0080           0
      1810 WT1      318      TIP3     OH2      OT      -0.834000       15.9994           0
      1811 WT1      318      TIP3     H1       HT       0.417000        1.0080           0
      1812 WT1      318      TIP3     H2       HT       0.417000        1.0080           0
      1813 WT1      319      TIP3     OH2      OT      -0.834000       15.9994           0
      1814 WT1      319      TIP3     H1       HT       0.417000        1.0080           0
      1815 WT1      319      TIP3     H2       HT       0.417000        1.0080           0
      1816 WT1      320      TIP3     OH2      OT      -0.834000       15.9994           0
      1817 WT1      320      TIP3     H1       HT       0.417000        1.0080           0
      1818 WT1      320      TIP3     H2       HT       0.417000        1.0080           0
      1819 WT1      321      TIP3     OH2      OT      -0.834000       15.9994           0
      1820 WT1      321      TIP3     H1       HT       0.417000        1.0080           0
      1821 WT1      321      TIP3     H2       HT       0.417000        1.0080           0
      1822 WT1      322      TIP3     OH2      OT      -0.834000       15.9994           0
      1823 WT1      322      TIP3     H1       HT       0.417000        1.0080           0
      1824 WT1      322      TIP3     H2       HT       0.417000        1.0080           0
      1825 WT1      324      TIP3     OH2      OT      -0.834000       15.9994           0
      1826 WT1      324      TIP3     H1       HT       0.417000        1.0080           0
      1827 WT1      324      TIP3     H2       HT       0.417000        1.0080           0
      1828 WT1      325      TIP3     OH2      OT      -0.834000       15.9994           0
      1829 WT1      325      TIP3     H1       HT       0.417000        1.0080           0
      1830 WT1      325      TIP3     H2       HT       0.417000        1.0080           0
      1831 WT1      326      TIP3     OH2      OT      -0.834000       15.9994           0
      1832 WT1      326      TIP3     H1       HT       0.417000        1.0080           0
      1833 WT1      326      TIP3     H2       HT       0.417000        1.0080           0
      1834 WT1      327      TIP3     OH2      OT      -0.834000       15.9994           0
      1835 WT1      327      TIP3     H1       HT       0.417000        1.0080           0
      1836 WT1      327      TIP3     H2       HT       0.417000        1.0080           0
      1837 WT1      328      TIP3     OH2      OT      -0.834000       15.9994           0
      1838 WT1      328      TIP3     H1       HT       0.417000        1.0080           0
      1839 WT1      328      TIP3     H2       HT       0.417000        1.0080           0
      1840 WT1      329      TIP3     OH2      OT      -0.834000       15.9994           0
      1841 WT1      329      TIP3     H1       HT       0.417000        1.0080           0
      1842 WT1      329      TIP3     H2       HT       0.417000        1.0080           0
      1843 WT1      330      TIP3     OH2      OT      -0.834000       15.9994           0
      1844 WT1      330      TIP3     H1       HT       0.417000        1.0080           0
      1845 WT1      330      TIP3     H2       HT       0.417000        1.0080           0
      1846 WT1      331      TIP3     OH2      OT      -0.834000       15.9994           0
      1847 WT1      331      TIP3     H1       HT       0.417000        1.0080           0
      1848 WT1      331      TIP3     H2       HT       0.417000        1.0080           0
      1849 WT1      332      TIP3     OH2      OT      -0.834000       15.9994           0
      1850 WT1      332      TIP3     H1       HT       0.417000        1.0080           0
      1851 WT1      332      TIP3     H2       HT       0.417000        1.0080           0
      1852 WT1      333      TIP3     OH2      OT      -0.834000       15.9994           0
      1853 WT1      333      TIP3     H1       HT       0.417000        1.0080           0
      1854 WT1      333      TIP3     H2       HT       0.417000        1.0080           0
      1855 WT1      334      TIP3     OH2      OT      -0.834000       15.9994           0
      1856 WT1      334      TIP3     H1       HT       0.417000        1.0080           0
      1857 WT1      334      TIP3     H2       HT       0.417000        1.0080           0
      1858 WT1      335      TIP3     OH2      OT      -0.834000       15.9994           0
      1859 WT1      335      TIP3     H1       HT       0.417000        1.0080           0
      1860 WT1      335      TIP3     H2       HT       0.417000        1.0080           0
      1861 WT1      336      TIP3     OH2      OT      -0.834000       15.9994           0
      1862 WT1      336      TIP3     H1       HT       0.417000        1.0080           0
      1863 WT1      336      TIP3     H2       HT       0.417000        1.0080           0
      1864 WT1      337      TIP3     OH2      OT      -0.834000       15.9994           0
      1865 WT1      337      TIP3     H1       HT       0.417000        1.0080           0
      1866 WT1      337      TIP3     H2       HT       0.417000        1.0080           0
      1867 WT1      338      TIP3     OH2      OT      -0.834000       15.9994           0
      1868 WT1      338      TIP3     H1       HT       0.417000        1.0080           0
      1869 WT1      338      TIP3     H2       HT       0.417000        1.0080           0
      1870 WT1      339      TIP3     OH2      OT      -0.834000       15.9994           0
      1871 WT1      339      TIP3     H1       HT       0.417000        1.0080           0
      1872 WT1      339      TIP3     H2       HT       0.417000        1.0080           0
      1873 WT1      340      TIP3     OH2      OT      -0.834000       15.9994           0
      1874 WT1      340      TIP3     H1       HT       0.417000        1.0080           0
      1875 WT1      340      TIP3     H2       HT       0.417000        1.0080           0
      1876 WT1      341      TIP3     OH2      OT      -0.834000       15.9994           0
      1877 WT1      341      TIP3     H1       HT       0.417000        1.0080           0
      1878 WT1      341      TIP3     H2       HT       0.417000        1.0080           0
      1879 WT1      342      TIP3     OH2      OT      -0.834000       15.9994           0
      1880 WT1      342      TIP3     H1       HT       0.417000        1.0080           0
      1881 WT1      342      TIP3     H2       HT       0.417000        1.0080           0
      1882 WT1      343      TIP3     OH2      OT      -0.834000       15.9994           0
      1883 WT1      343      TIP3     H1       HT       0.417000        1.0080           0
      1884 WT1      343      TIP3     H2       HT       0.417000        1.0080           0
      1885 WT1      344      TIP3     OH2      OT      -0.834000       15.9994           0
      1886 WT1      344      TIP3     H1       HT       0.417000        1.0080           0
      1887 WT1      344      TIP3     H2       HT       0.417000        1.0080           0
      1888 WT1      345      TIP3     OH2      OT      -0.834000       15.9994           0
      1889 WT1      345      TIP3     H1       HT       0.417000        1.0080           0
      1890 WT1      345      TIP3     H2       HT       0.417000        1.0080           0
      1891 WT1      346      TIP3     OH2      OT      -0.834000       15.9994           0
      1892 WT1      346      TIP3     H1       HT       0.417000        1.0080           0
      1893 WT1      346      TIP3     H2       HT       0.417000        1.0080           0
      1894 WT1      347      TIP3     OH2      OT      -0.834000       15.9994           0
      1895 WT1      347      TIP3     H1       HT       0.417000        1.0080           0
      1896 WT1      347      TIP3     H2       HT       0.417000        1.0080           0
      1897 WT1      348      TIP3     OH2      OT      -0.834000       15.9994           0
      1898 WT1      348      TIP3     H1       HT       0.417000        1.0080           0
      1899 WT1      348      TIP3     H2       HT       0.417000        1.0080           0
      1900 WT1      349      TIP3     OH2      OT      -0.834000       15.9994           0
      1901 WT1      349      TIP3     H1       HT       0.417000        1.0080           0
      1902 WT1      349      TIP3     H2       HT       0.417000        1.0080           0
      1903 WT1      350      TIP3     OH2      OT      -0.834000       15.9994           0
      1904 WT1      350      TIP3     H1       HT       0.417000        1.0080           0
      1905 WT1      350      TIP3     H2       HT       0.417000        1.0080           0
      1906 WT1      351      TIP3     OH2      OT      -0.834000       15.9994           0
      1907 WT1      351      TIP3     H1       HT       0.417000        1.0080           0
      1908 WT1      351      TIP3     H2       HT       0.417000        1.0080           0
      1909 WT1      352      TIP3     OH2      OT      -0.834000       15.9994           0
      1910 WT1      352      TIP3     H1       HT       0.417000        1.0080           0
      1911 WT1      352      TIP3     H2       HT       0.417000        1.0080           0
      1912 WT1      353      TIP3     OH2      OT      -0.834000       15.9994           0
      1913 WT1      353      TIP3     H1       HT       0.417000        1.0080           0
      1914 WT1      353      TIP3     H2       HT       0.417000        1.0080           0
      1915 WT1      354      TIP3     OH2      OT      -0.834000       15.9994           0
      1916 WT1      354      TIP3     H1       HT       0.417000        1.0080           0
      1917 WT1      354      TIP3     H2       HT       0.417000        1.0080           0
      1918 WT1      355      TIP3     OH2      OT      -0.834000       15.9994           0
      1919 WT1      355      TIP3     H1       HT       0.417000        1.0080           0
      1920 WT1      355      TIP3     H2       HT       0.417000        1.0080           0
      1921 WT1      356      TIP3     OH2      OT      -0.834000       15.9994           0
      1922 WT1      356      TIP3     H1       HT       0.417000        1.0080           0
      1923 WT1      356      TIP3     H2       HT       0.417000        1.0080           0
      1924 WT1      357      TIP3     OH2      OT      -0.834000       15.9994           0
      1925 WT1      357      TIP3     H1       HT       0.417000        1.0080           0
      1926 WT1      357      TIP3     H2       HT       0.417000        1.0080           0
      1927 WT1      358      TIP3     OH2      OT      -0.834000       15.9994           0
      1928 WT1      358      TIP3     H1       HT       0.417000        1.0080           0
      1929 WT1      358      TIP3     H2       HT       0.417000        1.0080           0
      1930 WT1      359      TIP3     OH2      OT      -0.834000       15.9994           0
      1931 WT1      359      TIP3     H1       HT       0.417000        1.0080           0
      1932 WT1      359      TIP3     H2       HT       0.417000        1.0080           0
      1933 WT1      360      TIP3     OH2      OT      -0.834000       15.9994           0
      1934 WT1      360      TIP3     H1       HT       0.417000        1.0080           0
      1935 WT1      360      TIP3     H2       HT       0.417000        1.0080           0
      1936 WT1      361      TIP3     OH2      OT      -0.834000       15.9994           0
      1937 WT1      361      TIP3     H1       HT       0.417000        1.0080           0
      1938 WT1      361      TIP3     H2       HT       0.417000        1.0080           0
      1939 WT1      362      TIP3     OH2      OT      -0.834000       15.9994           0
      1940 WT1      362      TIP3     H1       HT       0.417000        1.0080           0
      1941 WT1      362      TIP3     H2       HT       0.417000        1.0080           0
      1942 WT1      363      TIP3     OH2      OT      -0.834000       15.9994           0
      1943 WT1      363      TIP3     H1       HT       0.417000        1.0080           0
      1944 WT1      363      TIP3     H2       HT       0.417000        1.0080           0
      1945 WT1      364      TIP3     OH2      OT      -0.834000       15.9994           0
      1946 WT1      364      TIP3     H1       HT       0.417000        1.0080           0
      1947 WT1      364      TIP3     H2       HT       0.417000        1.0080           0
      1948 WT1      365      TIP3     OH2      OT      -0.834000       15.9994           0
      1949 WT1      365      TIP3     H1       HT       0.417000        1.0080           0
      1950 WT1      365      TIP3     H2       HT       0.417000        1.0080           0
      1951 WT1      366      TIP3     OH2      OT      -0.834000       15.9994           0
      1952 WT1      366      TIP3     H1       HT       0.417000        1.0080           0
      1953 WT1      366      TIP3     H2       HT       0.417000        1.0080           0
      1954 WT1      367      TIP3     OH2      OT      -0.834000       15.9994           0
      1955 WT1      367      TIP3     H1       HT       0.417000        1.0080           0
      1956 WT1      367      TIP3     H2       HT       0.417000        1.0080           0
      1957 WT1      368      TIP3     OH2      OT      -0.834000       15.9994           0
      1958 WT1      368      TIP3     H1       HT       0.417000        1.0080           0
      1959 WT1      368      TIP3     H2       HT       0.417000        1.0080           0
      1960 WT1      369      TIP3     OH2      OT      -0.834000       15.9994           0
      1961 WT1      369      TIP3     H1       HT       0.417000        1.0080           0
      1962 WT1      369      TIP3     H2       HT       0.417000        1.0080           0
      1963 WT1      370      TIP3     OH2      OT      -0.834000       15.9994           0
      1964 WT1      370      TIP3     H1       HT       0.417000        1.0080           0
      1965 WT1      370      TIP3     H2       HT       0.417000        1.0080           0
      1966 WT1      371      TIP3     OH2      OT      -0.834000       15.9994           0
      1967 WT1      371      TIP3     H1       HT       0.417000        1.0080           0
      1968 WT1      371      TIP3     H2       HT       0.417000        1.0080           0
      1969 WT1      372      TIP3     OH2      OT      -0.834000       15.9994           0
      1970 WT1      372      TIP3     H1       HT       0.417000        1.0080           0
      1971 WT1      372      TIP3     H2       HT       0.417000        1.0080           0
      1972 WT1      373      TIP3     OH2      OT      -0.834000       15.9994           0
      1973 WT1      373      TIP3     H1       HT       0.417000        1.0080           0
      1974 WT1      373      TIP3     H2       HT       0.417000        1.0080           0
      1975 WT1      374      TIP3     OH2      OT      -0.834000       15.9994           0
      1976 WT1      374      TIP3     H1       HT       0.417000        1.0080           0
      1977 WT1      374      TIP3     H2       HT       0.417000        1.0080           0
      1978 WT1      375      TIP3     OH2      OT      -0.834000       15.9994           0
      1979 WT1      375      TIP3     H1       HT       0.417000        1.0080           0
      1980 WT1      375      TIP3     H2       HT       0.417000        1.0080           0
      1981 WT1      376      TIP3     OH2      OT      -0.834000       15.9994           0
      1982 WT1      376      TIP3     H1       HT       0.417000        1.0080           0
      1983 WT1      376      TIP3     H2       HT       0.417000        1.0080           0
      1984 WT1      377      TIP3     OH2      OT      -0.834000       15.9994           0
      1985 WT1      377      TIP3     H1       HT       0.417000        1.0080           0
      1986 WT1      377      TIP3     H2       HT       0.417000        1.0080           0
      1987 WT1      378      TIP3     OH2      OT      -0.834000       15.9994           0
      1988 WT1      378      TIP3     H1       HT       0.417000        1.0080           0
      1989 WT1      378      TIP3     H2       HT       0.417000        1.0080           0
      1990 WT1      379      TIP3     OH2      OT      -0.834000       15.9994           0
      1991 WT1      379      TIP3     H1       HT       0.417000        1.0080           0
      1992 WT1      379      TIP3     H2       HT       0.417000        1.0080           0
      1993 WT1      380      TIP3     OH2      OT      -0.834000       15.9994           0
      1994 WT1      380      TIP3     H1       HT       0.417000        1.0080           0
      1995 WT1      380      TIP3     H2       HT       0.417000        1.0080           0
      1996 WT1      381      TIP3     OH2      OT      -0.834000       15.9994           0
      1997 WT1      381      TIP3     H1       HT       0.417000        1.0080           0
      1998 WT1      381      TIP3     H2       HT       0.417000        1.0080           0
      1999 WT1      382      TIP3     OH2      OT      -0.834000       15.9994           0
      2000 WT1      382      TIP3     H1       HT       0.417000        1.0080           0
      2001 WT1      382      TIP3     H2       HT       0.417000        1.0080           0
      2002 WT1      383      TIP3     OH2      OT      -0.834000       15.9994           0
      2003 WT1      383      TIP3     H1       HT       0.417000        1.0080           0
      2004 WT1      383      TIP3     H2       HT       0.417000        1.0080           0
      2005 WT1      384      TIP3     OH2      OT      -0.834000       15.9994           0
      2006 WT1      384      TIP3     H1       HT       0.417000        1.0080           0
      2007 WT1      384      TIP3     H2       HT       0.417000        1.0080           0
      2008 WT1      385      TIP3     OH2      OT      -0.834000       15.9994           0
      2009 WT1      385      TIP3     H1       HT       0.417000        1.0080           0
      2010 WT1      385      TIP3     H2       HT       0.417000        1.0080           0
      2011 WT1      386      TIP3     OH2      OT      -0.834000       15.9994           0
      2012 WT1      386      TIP3     H1       HT       0.417000        1.0080           0
      2013 WT1      386      TIP3     H2       HT       0.417000        1.0080           0
      2014 WT1      387      TIP3     OH2      OT      -0.834000       15.9994           0
      2015 WT1      387      TIP3     H1       HT       0.417000        1.0080           0
      2016 WT1      387      TIP3     H2       HT       0.417000        1.0080           0
      2017 WT1      388      TIP3     OH2      OT      -0.834000       15.9994           0
      2018 WT1      388      TIP3     H1       HT       0.417000        1.0080           0
      2019 WT1      388      TIP3     H2       HT       0.417000        1.0080           0
      2020 WT1      389      TIP3     OH2      OT      -0.834000       15.9994           0
      2021 WT1      389      TIP3     H1       HT       0.417000        1.0080           0
      2022 WT1      389      TIP3     H2       HT       0.417000        1.0080           0
      2023 WT1      390      TIP3     OH2      OT      -0.834000       15.9994           0
      2024 WT1      390      TIP3     H1       HT       0.417000        1.0080           0
      2025 WT1      390      TIP3     H2       HT       0.417000        1.0080           0
      2026 WT1      391      TIP3     OH2      OT      -0.834000       15.9994           0
      2027 WT1      391      TIP3     H1       HT       0.417000        1.0080           0
      2028 WT1      391      TIP3     H2       HT       0.417000        1.0080           0
      2029 WT1      392      TIP3     OH2      OT      -0.834000       15.9994           0
      2030 WT1      392      TIP3     H1       HT       0.417000        1.0080           0
      2031 WT1      392      TIP3     H2       HT       0.417000        1.0080           0
      2032 WT1      393      TIP3     OH2      OT      -0.834000       15.9994           0
      2033 WT1      393      TIP3     H1       HT       0.417000        1.0080           0
      2034 WT1      393      TIP3     H2       HT       0.417000        1.0080           0
      2035 WT1      394      TIP3     OH2      OT      -0.834000       15.9994           0
      2036 WT1      394      TIP3     H1       HT       0.417000        1.0080           0
      2037 WT1      394      TIP3     H2       HT       0.417000        1.0080           0
      2038 WT1      395      TIP3     OH2      OT      -0.834000       15.9994           0
      2039 WT1      395      TIP3     H1       HT       0.417000        1.0080           0
      2040 WT1      395      TIP3     H2       HT       0.417000        1.0080           0
      2041 WT1      396      TIP3     OH2      OT      -0.834000       15.9994           0
      2042 WT1      396      TIP3     H1       HT       0.417000        1.0080           0
      2043 WT1      396      TIP3     H2       HT       0.417000        1.0080           0
      2044 WT1      397      TIP3     OH2      OT      -0.834000       15.9994           0
      2045 WT1      397      TIP3     H1       HT       0.417000        1.0080           0
      2046 WT1      397      TIP3     H2       HT       0.417000        1.0080           0
      2047 WT1      399      TIP3     OH2      OT      -0.834000       15.9994           0
      2048 WT1      399      TIP3     H1       HT       0.417000        1.0080           0
      2049 WT1      399      TIP3     H2       HT       0.417000        1.0080           0
      2050 WT1      400      TIP3     OH2      OT      -0.834000       15.9994           0
      2051 WT1      400      TIP3     H1       HT       0.417000        1.0080           0
      2052 WT1      400      TIP3     H2       HT       0.417000        1.0080           0
      2053 WT1      401      TIP3     OH2      OT      -0.834000       15.9994           0
      2054 WT1      401      TIP3     H1       HT       0.417000        1.0080           0
      2055 WT1      401      TIP3     H2       HT       0.417000        1.0080           0
      2056 WT1      402      TIP3     OH2      OT      -0.834000       15.9994           0
      2057 WT1      402      TIP3     H1       HT       0.417000        1.0080           0
      2058 WT1      402      TIP3     H2       HT       0.417000        1.0080           0
      2059 WT1      403      TIP3     OH2      OT      -0.834000       15.9994           0
      2060 WT1      403      TIP3     H1       HT       0.417000        1.0080           0
      2061 WT1      403      TIP3     H2       HT       0.417000        1.0080           0
      2062 WT1      404      TIP3     OH2      OT      -0.834000       15.9994           0
      2063 WT1      404      TIP3     H1       HT       0.417000        1.0080           0
      2064 WT1      404      TIP3     H2       HT       0.417000        1.0080           0
      2065 WT1      405      TIP3     OH2      OT      -0.834000       15.9994           0
      2066 WT1      405      TIP3     H1       HT       0.417000        1.0080           0
      2067 WT1      405      TIP3     H2       HT       0.417000        1.0080           0
      2068 WT1      406      TIP3     OH2      OT      -0.834000       15.9994           0
      2069 WT1      406      TIP3     H1       HT       0.417000        1.0080           0
      2070 WT1      406      TIP3     H2       HT       0.417000        1.0080           0
      2071 WT1      407      TIP3     OH2      OT      -0.834000       15.9994           0
      2072 WT1      407      TIP3     H1       HT       0.417000        1.0080           0
      2073 WT1      407      TIP3     H2       HT       0.417000        1.0080           0
      2074 WT1      408      TIP3     OH2      OT      -0.834000       15.9994           0
      2075 WT1      408      TIP3     H1       HT       0.417000        1.0080           0
      2076 WT1      408      TIP3     H2       HT       0.417000        1.0080           0
      2077 WT1      409      TIP3     OH2      OT      -0.834000       15.9994           0
      2078 WT1      409      TIP3     H1       HT       0.417000        1.0080           0
      2079 WT1      409      TIP3     H2       HT       0.417000        1.0080           0
      2080 WT1      410      TIP3     OH2      OT      -0.834000       15.9994           0
      2081 WT1      410      TIP3     H1       HT       0.417000        1.0080           0
      2082 WT1      410      TIP3     H2       HT       0.417000        1.0080           0
      2083 WT1      411      TIP3     OH2      OT      -0.834000       15.9994           0
      2084 WT1      411      TIP3     H1       HT       0.417000        1.0080           0
      2085 WT1      411      TIP3     H2       HT       0.417000        1.0080           0
      2086 WT1      412      TIP3     OH2      OT      -0.834000       15.9994           0
      2087 WT1      412      TIP3     H1       HT       0.417000        1.0080           0
      2088 WT1      412      TIP3     H2       HT       0.417000        1.0080           0
      2089 WT1      413      TIP3     OH2      OT      -0.834000       15.9994           0
      2090 WT1      413      TIP3     H1       HT       0.417000        1.0080           0
      2091 WT1      413      TIP3     H2       HT       0.417000        1.0080           0
      2092 WT1      414      TIP3     OH2      OT      -0.834000       15.9994           0
      2093 WT1      414      TIP3     H1       HT       0.417000        1.0080           0
      2094 WT1      414      TIP3     H2       HT       0.417000        1.0080           0
      2095 WT1      415      TIP3     OH2      OT      -0.834000       15.9994           0
      2096 WT1      415      TIP3     H1       HT       0.417000        1.0080           0
      2097 WT1      415      TIP3     H2       HT       0.417000        1.0080           0
      2098 WT1      417      TIP3     OH2      OT      -0.834000       15.9994           0
      2099 WT1      417      TIP3     H1       HT       0.417000        1.0080           0
      2100 WT1      417      TIP3     H2       HT       0.417000        1.0080           0
      2101 WT1      418      TIP3     OH2      OT      -0.834000       15.9994           0
      2102 WT1      418      TIP3     H1       HT       0.417000        1.0080           0
      2103 WT1      418      TIP3     H2       HT       0.417000        1.0080           0
      2104 WT1      419      TIP3     OH2      OT      -0.834000       15.9994           0
      2105 WT1      419      TIP3     H1       HT       0.417000        1.0080           0
      2106 WT1      419      TIP3     H2       HT       0.417000        1.0080           0
      2107 WT1      420      TIP3     OH2      OT      -0.834000       15.9994           0
      2108 WT1      420      TIP3     H1       HT       0.417000        1.0080           0
      2109 WT1      420      TIP3     H2       HT       0.417000        1.0080           0
      2110 WT1      421      TIP3     OH2      OT      -0.834000       15.9994           0
      2111 WT1      421      TIP3     H1       HT       0.417000        1.0080           0
      2112 WT1      421      TIP3     H2       HT       0.417000        1.0080           0
      2113 WT1      422      TIP3     OH2      OT      -0.834000       15.9994           0
      2114 WT1      422      TIP3     H1       HT       0.417000        1.0080           0
      2115 WT1      422      TIP3     H2       HT       0.417000        1.0080           0
      2116 WT1      423      TIP3     OH2      OT      -0.834000       15.9994           0
      2117 WT1      423      TIP3     H1       HT       0.417000        1.0080           0
      2118 WT1      423      TIP3     H2       HT       0.417000        1.0080           0
      2119 WT1      424      TIP3     OH2      OT      -0.834000       15.9994           0
      2120 WT1      424      TIP3     H1       HT       0.417000        1.0080           0
      2121 WT1      424      TIP3     H2       HT       0.417000        1.0080           0
      2122 WT1      425      TIP3     OH2      OT      -0.834000       15.9994           0
      2123 WT1      425      TIP3     H1       HT       0.417000        1.0080           0
      2124 WT1      425      TIP3     H2       HT       0.417000        1.0080           0
      2125 WT1      426      TIP3     OH2      OT      -0.834000       15.9994           0
      2126 WT1      426      TIP3     H1       HT       0.417000        1.0080           0
      2127 WT1      426      TIP3     H2       HT       0.417000        1.0080           0
      2128 WT1      427      TIP3     OH2      OT      -0.834000       15.9994           0
      2129 WT1      427      TIP3     H1       HT       0.417000        1.0080           0
      2130 WT1      427      TIP3     H2       HT       0.417000        1.0080           0
      2131 WT1      428      TIP3     OH2      OT      -0.834000       15.9994           0
      2132 WT1      428      TIP3     H1       HT       0.417000        1.0080           0
      2133 WT1      428      TIP3     H2       HT       0.417000        1.0080           0
      2134 WT1      429      TIP3     OH2      OT      -0.834000       15.9994           0
      2135 WT1      429      TIP3     H1       HT       0.417000        1.0080           0
      2136 WT1      429      TIP3     H2       HT       0.417000        1.0080           0
      2137 WT1      430      TIP3     OH2      OT      -0.834000       15.9994           0
      2138 WT1      430      TIP3     H1       HT       0.417000        1.0080           0
      2139 WT1      430      TIP3     H2       HT       0.417000        1.0080           0
      2140 WT1      431      TIP3     OH2      OT      -0.834000       15.9994           0
      2141 WT1      431      TIP3     H1       HT       0.417000        1.0080           0
      2142 WT1      431      TIP3     H2       HT       0.417000        1.0080           0
      2143 WT1      432      TIP3     OH2      OT      -0.834000       15.9994           0
      2144 WT1      432      TIP3     H1       HT       0.417000        1.0080           0
      2145 WT1      432      TIP3     H2       HT       0.417000        1.0080           0
      2146 WT1      433      TIP3     OH2      OT      -0.834000       15.9994           0
      2147 WT1      433      TIP3     H1       HT       0.417000        1.0080           0
      2148 WT1      433      TIP3     H2       HT       0.417000        1.0080           0
      2149 WT1      434      TIP3     OH2      OT      -0.834000       15.9994           0
      2150 WT1      434      TIP3     H1       HT       0.417000        1.0080           0
      2151 WT1      434      TIP3     H2       HT       0.417000        1.0080           0
      2152 WT1      435      TIP3     OH2      OT      -0.834000       15.9994           0
      2153 WT1      435      TIP3     H1       HT       0.417000        1.0080           0
      2154 WT1      435      TIP3     H2       HT       0.417000        1.0080           0
      2155 WT1      436      TIP3     OH2      OT      -0.834000       15.9994           0
      2156 WT1      436      TIP3     H1       HT       0.417000        1.0080           0
      2157 WT1      436      TIP3     H2       HT       0.417000        1.0080           0
      2158 WT1      437      TIP3     OH2      OT      -0.834000       15.9994           0
      2159 WT1      437      TIP3     H1       HT       0.417000        1.0080           0
      2160 WT1      437      TIP3     H2       HT       0.417000        1.0080           0
      2161 WT1      438      TIP3     OH2      OT      -0.834000       15.9994           0
      2162 WT1      438      TIP3     H1       HT       0.417000        1.0080           0
      2163 WT1      438      TIP3     H2       HT       0.417000        1.0080           0
      2164 WT1      439      TIP3     OH2      OT      -0.834000       15.9994           0
      2165 WT1      439      TIP3     H1       HT       0.417000        1.0080           0
      2166 WT1      439      TIP3     H2       HT       0.417000        1.0080           0
      2167 WT1      440      TIP3     OH2      OT      -0.834000       15.9994           0
      2168 WT1      440      TIP3     H1       HT       0.417000        1.0080           0
      2169 WT1      440      TIP3     H2       HT       0.417000        1.0080           0
      2170 WT1      441      TIP3     OH2      OT      -0.834000       15.9994           0
      2171 WT1      441      TIP3     H1       HT       0.417000        1.0080           0
      2172 WT1      441      TIP3     H2       HT       0.417000        1.0080           0
      2173 WT1      442      TIP3     OH2      OT      -0.834000       15.9994           0
      2174 WT1      442      TIP3     H1       HT       0.417000        1.0080           0
      2175 WT1      442      TIP3     H2       HT       0.417000        1.0080           0
      2176 WT1      443      TIP3     OH2      OT      -0.834000       15.9994           0
      2177 WT1      443      TIP3     H1       HT       0.417000        1.0080           0
      2178 WT1      443      TIP3     H2       HT       0.417000        1.0080           0
      2179 WT1      444      TIP3     OH2      OT      -0.834000       15.9994           0
      2180 WT1      444      TIP3     H1       HT       0.417000        1.0080           0
      2181 WT1      444      TIP3     H2       HT       0.417000        1.0080           0
      2182 WT1      446      TIP3     OH2      OT      -0.834000       15.9994           0
      2183 WT1      446      TIP3     H1       HT       0.417000        1.0080           0
      2184 WT1      446      TIP3     H2       HT       0.417000        1.0080           0
      2185 WT1      447      TIP3     OH2      OT      -0.834000       15.9994           0
      2186 WT1      447      TIP3     H1       HT       0.417000        1.0080           0
      2187 WT1      447      TIP3     H2       HT       0.417000        1.0080           0
      2188 WT1      448      TIP3     OH2      OT      -0.834000       15.9994           0
      2189 WT1      448      TIP3     H1       HT       0.417000        1.0080           0
      2190 WT1      448      TIP3     H2       HT       0.417000        1.0080           0
      2191 WT1      450      TIP3     OH2      OT      -0.834000       15.9994           0
      2192 WT1      450      TIP3     H1       HT       0.417000        1.0080           0
      2193 WT1      450      TIP3     H2       HT       0.417000        1.0080           0
      2194 WT1      451      TIP3     OH2      OT      -0.834000       15.9994           0
      2195 WT1      451      TIP3     H1       HT       0.417000        1.0080           0
      2196 WT1      451      TIP3     H2       HT       0.417000        1.0080           0
      2197 WT1      452      TIP3     OH2      OT      -0.834000       15.9994           0
      2198 WT1      452      TIP3     H1       HT       0.417000        1.0080           0
      2199 WT1      452      TIP3     H2       HT       0.417000        1.0080           0
      2200 WT1      453      TIP3     OH2      OT      -0.834000       15.9994           0
      2201 WT1      453      TIP3     H1       HT       0.417000        1.0080           0
      2202 WT1      453      TIP3     H2       HT       0.417000        1.0080           0
      2203 WT1      454      TIP3     OH2      OT      -0.834000       15.9994           0
      2204 WT1      454      TIP3     H1       HT       0.417000        1.0080           0
      2205 WT1      454      TIP3     H2       HT       0.417000        1.0080           0
      2206 WT1      455      TIP3     OH2      OT      -0.834000       15.9994           0
      2207 WT1      455      TIP3     H1       HT       0.417000        1.0080           0
      2208 WT1      455      TIP3     H2       HT       0.417000        1.0080           0
      2209 WT1      456      TIP3     OH2      OT      -0.834000       15.9994           0
      2210 WT1      456      TIP3     H1       HT       0.417000        1.0080           0
      2211 WT1      456      TIP3     H2       HT       0.417000        1.0080           0
      2212 WT1      457      TIP3     OH2      OT      -0.834000       15.9994           0
      2213 WT1      457      TIP3     H1       HT       0.417000        1.0080           0
      2214 WT1      457      TIP3     H2       HT       0.417000        1.0080           0
      2215 WT1      458      TIP3     OH2      OT      -0.834000       15.9994           0
      2216 WT1      458      TIP3     H1       HT       0.417000        1.0080           0
      2217 WT1      458      TIP3     H2       HT       0.417000        1.0080           0
      2218 WT1      459      TIP3     OH2      OT      -0.834000       15.9994           0
      2219 WT1      459      TIP3     H1       HT       0.417000        1.0080           0
      2220 WT1      459      TIP3     H2       HT       0.417000        1.0080           0
      2221 WT1      460      TIP3     OH2      OT      -0.834000       15.9994           0
      2222 WT1      460      TIP3     H1       HT       0.417000        1.0080           0
      2223 WT1      460      TIP3     H2       HT       0.417000        1.0080           0
      2224 WT1      461      TIP3     OH2      OT      -0.834000       15.9994           0
      2225 WT1      461      TIP3     H1       HT       0.417000        1.0080           0
      2226 WT1      461      TIP3     H2       HT       0.417000        1.0080           0
      2227 WT1      462      TIP3     OH2      OT      -0.834000       15.9994           0
      2228 WT1      462      TIP3     H1       HT       0.417000        1.0080           0
      2229 WT1      462      TIP3     H2       HT       0.417000        1.0080           0
      2230 WT1      463      TIP3     OH2      OT      -0.834000       15.9994           0
      2231 WT1      463      TIP3     H1       HT       0.417000        1.0080           0
      2232 WT1      463      TIP3     H2       HT       0.417000        1.0080           0
      2233 WT1      464      TIP3     OH2      OT      -0.834000       15.9994           0
      2234 WT1      464      TIP3     H1       HT       0.417000        1.0080           0
      2235 WT1      464      TIP3     H2       HT       0.417000        1.0080           0
      2236 WT1      465      TIP3     OH2      OT      -0.834000       15.9994           0
      2237 WT1      465      TIP3     H1       HT       0.417000        1.0080           0
      2238 WT1      465      TIP3     H2       HT       0.417000        1.0080           0
      2239 WT1      466      TIP3     OH2      OT      -0.834000       15.9994           0
      2240 WT1      466      TIP3     H1       HT       0.417000        1.0080           0
      2241 WT1      466      TIP3     H2       HT       0.417000        1.0080           0
      2242 WT1      467      TIP3     OH2      OT      -0.834000       15.9994           0
      2243 WT1      467      TIP3     H1       HT       0.417000        1.0080           0
      2244 WT1      467      TIP3     H2       HT       0.417000        1.0080           0
      2245 WT1      468      TIP3     OH2      OT      -0.834000       15.9994           0
      2246 WT1      468      TIP3     H1       HT       0.417000        1.0080           0
      2247 WT1      468      TIP3     H2       HT       0.417000        1.0080           0
      2248 WT1      469      TIP3     OH2      OT      -0.834000       15.9994           0
      2249 WT1      469      TIP3     H1       HT       0.417000        1.0080           0
      2250 WT1      469      TIP3     H2       HT       0.417000        1.0080           0
      2251 WT1      470      TIP3     OH2      OT      -0.834000       15.9994           0
      2252 WT1      470      TIP3     H1       HT       0.417000        1.0080           0
      2253 WT1      470      TIP3     H2       HT       0.417000        1.0080           0
      2254 WT1      471      TIP3     OH2      OT      -0.834000       15.9994           0
      2255 WT1      471      TIP3     H1       HT       0.417000        1.0080           0
      2256 WT1      471      TIP3     H2       HT       0.417000        1.0080           0
      2257 WT1      472      TIP3     OH2      OT      -0.834000       15.9994           0
      2258 WT1      472      TIP3     H1       HT       0.417000        1.0080           0
      2259 WT1      472      TIP3     H2       HT       0.417000        1.0080           0
      2260 WT1      473      TIP3     OH2      OT      -0.834000       15.9994           0
      2261 WT1      473      TIP3     H1       HT       0.417000        1.0080           0
      2262 WT1      473      TIP3     H2       HT       0.417000        1.0080           0
      2263 WT1      474      TIP3     OH2      OT      -0.834000       15.9994           0
      2264 WT1      474      TIP3     H1       HT       0.417000        1.0080           0
      2265 WT1      474      TIP3     H2       HT       0.417000        1.0080           0
      2266 WT1      475      TIP3     OH2      OT      -0.834000       15.9994           0
      2267 WT1      475      TIP3     H1       HT       0.417000        1.0080           0
      2268 WT1      475      TIP3     H2       HT       0.417000        1.0080           0
      2269 WT1      476      TIP3     OH2      OT      -0.834000       15.9994           0
      2270 WT1      476      TIP3     H1       HT       0.417000        1.0080           0
      2271 WT1      476      TIP3     H2       HT       0.417000        1.0080           0
      2272 WT1      477      TIP3     OH2      OT      -0.834000       15.9994           0
      2273 WT1      477      TIP3     H1       HT       0.417000        1.0080           0
      2274 WT1      477      TIP3     H2       HT       0.417000        1.0080           0
      2275 WT1      478      TIP3     OH2      OT      -0.834000       15.9994           0
      2276 WT1      478      TIP3     H1       HT       0.417000        1.0080           0
      2277 WT1      478      TIP3     H2       HT       0.417000        1.0080           0
      2278 WT1      479      TIP3     OH2      OT      -0.834000       15.9994           0
      2279 WT1      479      TIP3     H1       HT       0.417000        1.0080           0
      2280 WT1      479      TIP3     H2       HT       0.417000        1.0080           0
      2281 WT1      480      TIP3     OH2      OT      -0.834000       15.9994           0
      2282 WT1      480      TIP3     H1       HT       0.417000        1.0080           0
      2283 WT1      480      TIP3     H2       HT       0.417000        1.0080           0
      2284 WT1      481      TIP3     OH2      OT      -0.834000       15.9994           0
      2285 WT1      481      TIP3     H1       HT       0.417000        1.0080           0
      2286 WT1      481      TIP3     H2       HT       0.417000        1.0080           0
      2287 WT1      482      TIP3     OH2      OT      -0.834000       15.9994           0
      2288 WT1      482      TIP3     H1       HT       0.417000        1.0080           0
      2289 WT1      482      TIP3     H2       HT       0.417000        1.0080           0
      2290 WT1      483      TIP3     OH2      OT      -0.834000       15.9994           0
      2291 WT1      483      TIP3     H1       HT       0.417000        1.0080           0
      2292 WT1      483      TIP3     H2       HT       0.417000        1.0080           0
      2293 WT1      484      TIP3     OH2      OT      -0.834000       15.9994           0
      2294 WT1      484      TIP3     H1       HT       0.417000        1.0080           0
      2295 WT1      484      TIP3     H2       HT       0.417000        1.0080           0
      2296 WT1      485      TIP3     OH2      OT      -0.834000       15.9994           0
      2297 WT1      485      TIP3     H1       HT       0.417000        1.0080           0
      2298 WT1      485      TIP3     H2       HT       0.417000        1.0080           0
      2299 WT1      486      TIP3     OH2      OT      -0.834000       15.9994           0
      2300 WT1      486      TIP3     H1       HT       0.417000        1.0080           0
      2301 WT1      486      TIP3     H2       HT       0.417000        1.0080           0
      2302 WT1      487      TIP3     OH2      OT      -0.834000       15.9994           0
      2303 WT1      487      TIP3     H1       HT       0.417000        1.0080           0
      2304 WT1      487      TIP3     H2       HT       0.417000        1.0080           0
      2305 WT1      488      TIP3     OH2      OT      -0.834000       15.9994           0
      2306 WT1      488      TIP3     H1       HT       0.417000        1.0080           0
      2307 WT1      488      TIP3     H2       HT       0.417000        1.0080           0
      2308 WT1      489      TIP3     OH2      OT      -0.834000       15.9994           0
      2309 WT1      489      TIP3     H1       HT       0.417000        1.0080           0
      2310 WT1      489      TIP3     H2       HT       0.417000        1.0080           0
      2311 WT1      490      TIP3     OH2      OT      -0.834000       15.9994           0
      2312 WT1      490      TIP3     H1       HT       0.417000        1.0080           0
      2313 WT1      490      TIP3     H2       HT       0.417000        1.0080           0
      2314 WT1      491      TIP3     OH2      OT      -0.834000       15.9994           0
      2315 WT1      491      TIP3     H1       HT       0.417000        1.0080           0
      2316 WT1      491      TIP3     H2       HT       0.417000        1.0080           0
      2317 WT1      492      TIP3     OH2      OT      -0.834000       15.9994           0
      2318 WT1      492      TIP3     H1       HT       0.417000        1.0080           0
      2319 WT1      492      TIP3     H2       HT       0.417000        1.0080           0
      2320 WT1      493      TIP3     OH2      OT      -0.834000       15.9994           0
      2321 WT1      493      TIP3     H1       HT       0.417000        1.0080           0
      2322 WT1      493      TIP3     H2       HT       0.417000        1.0080           0
      2323 WT1      494      TIP3     OH2      OT      -0.834000       15.9994           0
      2324 WT1      494      TIP3     H1       HT       0.417000        1.0080           0
      2325 WT1      494      TIP3     H2       HT       0.417000        1.0080           0
      2326 WT1      495      TIP3     OH2      OT      -0.834000       15.9994           0
      2327 WT1      495      TIP3     H1       HT       0.417000        1.0080           0
      2328 WT1      495      TIP3     H2       HT       0.417000        1.0080           0
      2329 WT1      496      TIP3     OH2      OT      -0.834000       15.9994           0
      2330 WT1      496      TIP3     H1       HT       0.417000        1.0080           0
      2331 WT1      496      TIP3     H2       HT       0.417000        1.0080           0
      2332 WT1      497      TIP3     OH2      OT      -0.834000       15.9994           0
      2333 WT1      497      TIP3     H1       HT       0.417000        1.0080           0
      2334 WT1      497      TIP3     H2       HT       0.417000        1.0080           0
      2335 WT1      498      TIP3     OH2      OT      -0.834000       15.9994           0
      2336 WT1      498      TIP3     H1       HT       0.417000        1.0080           0
      2337 WT1      498      TIP3     H2       HT       0.417000        1.0080           0
      2338 WT1      499      TIP3     OH2      OT      -0.834000       15.9994           0
      2339 WT1      499      TIP3     H1       HT       0.417000        1.0080           0
      2340 WT1      499      TIP3     H2       HT       0.417000        1.0080           0
      2341 WT1      500      TIP3     OH2      OT      -0.834000       15.9994           0
      2342 WT1      500      TIP3     H1       HT       0.417000        1.0080           0
      2343 WT1      500      TIP3     H2       HT       0.417000        1.0080           0
      2344 WT1      501      TIP3     OH2      OT      -0.834000       15.9994           0
      2345 WT1      501      TIP3     H1       HT       0.417000        1.0080           0
      2346 WT1      501      TIP3     H2       HT       0.417000        1.0080           0
      2347 WT1      502      TIP3     OH2      OT      -0.834000       15.9994           0
      2348 WT1      502      TIP3     H1       HT       0.417000        1.0080           0
      2349 WT1      502      TIP3     H2       HT       0.417000        1.0080           0
      2350 WT1      503      TIP3     OH2      OT      -0.834000       15.9994           0
      2351 WT1      503      TIP3     H1       HT       0.417000        1.0080           0
      2352 WT1      503      TIP3     H2       HT       0.417000        1.0080           0
      2353 WT1      504      TIP3     OH2      OT      -0.834000       15.9994           0
      2354 WT1      504      TIP3     H1       HT       0.417000        1.0080           0
      2355 WT1      504      TIP3     H2       HT       0.417000        1.0080           0
      2356 WT1      505      TIP3     OH2      OT      -0.834000       15.9994           0
      2357 WT1      505      TIP3     H1       HT       0.417000        1.0080           0
      2358 WT1      505      TIP3     H2       HT       0.417000        1.0080           0
      2359 WT1      506      TIP3     OH2      OT      -0.834000       15.9994           0
      2360 WT1      506      TIP3     H1       HT       0.417000        1.0080           0
      2361 WT1      506      TIP3     H2       HT       0.417000        1.0080           0
      2362 WT1      507      TIP3     OH2      OT      -0.834000       15.9994           0
      2363 WT1      507      TIP3     H1       HT       0.417000        1.0080           0
      2364 WT1      507      TIP3     H2       HT       0.417000        1.0080           0
      2365 WT1      508      TIP3     OH2      OT      -0.834000       15.9994           0
      2366 WT1      508      TIP3     H1       HT       0.417000        1.0080           0
      2367 WT1      508      TIP3     H2       HT       0.417000        1.0080           0
      2368 WT1      509      TIP3     OH2      OT      -0.834000       15.9994           0
      2369 WT1      509      TIP3     H1       HT       0.417000        1.0080           0
      2370 WT1      509      TIP3     H2       HT       0.417000        1.0080           0
      2371 WT1      510      TIP3     OH2      OT      -0.834000       15.9994           0
      2372 WT1      510      TIP3     H1       HT       0.417000        1.0080           0
      2373 WT1      510      TIP3     H2       HT       0.417000        1.0080           0
      2374 WT1      511      TIP3     OH2      OT      -0.834000       15.9994           0
      2375 WT1      511      TIP3     H1       HT       0.417000        1.0080           0
      2376 WT1      511      TIP3     H2       HT       0.417000        1.0080           0
      2377 WT1      512      TIP3     OH2      OT      -0.834000       15.9994           0
      2378 WT1      512      TIP3     H1       HT       0.417000        1.0080           0
      2379 WT1      512      TIP3     H2       HT       0.417000        1.0080           0
      2380 WT1      513      TIP3     OH2      OT      -0.834000       15.9994           0
      2381 WT1      513      TIP3     H1       HT       0.417000        1.0080           0
      2382 WT1      513      TIP3     H2       HT       0.417000        1.0080           0
      2383 WT1      514      TIP3     OH2      OT      -0.834000       15.9994           0
      2384 WT1      514      TIP3     H1       HT       0.417000        1.0080           0
      2385 WT1      514      TIP3     H2       HT       0.417000        1.0080           0
      2386 WT1      515      TIP3     OH2      OT      -0.834000       15.9994           0
      2387 WT1      515      TIP3     H1       HT       0.417000        1.0080           0
      2388 WT1      515      TIP3     H2       HT       0.417000        1.0080           0
      2389 WT1      516      TIP3     OH2      OT      -0.834000       15.9994           0
      2390 WT1      516      TIP3     H1       HT       0.417000        1.0080           0
      2391 WT1      516      TIP3     H2       HT       0.417000        1.0080           0
      2392 WT1      517      TIP3     OH2      OT      -0.834000       15.9994           0
      2393 WT1      517      TIP3     H1       HT       0.417000        1.0080           0
      2394 WT1      517      TIP3     H2       HT       0.417000        1.0080           0
      2395 WT1      518      TIP3     OH2      OT      -0.834000       15.9994           0
      2396 WT1      518      TIP3     H1       HT       0.417000        1.0080           0
      2397 WT1      518      TIP3     H2       HT       0.417000        1.0080           0
      2398 WT1      519      TIP3     OH2      OT      -0.834000       15.9994           0
      2399 WT1      519      TIP3     H1       HT       0.417000        1.0080           0
      2400 WT1      519      TIP3     H2       HT       0.417000        1.0080           0
      2401 WT1      521      TIP3     OH2      OT      -0.834000       15.9994           0
      2402 WT1      521      TIP3     H1       HT       0.417000        1.0080           0
      2403 WT1      521      TIP3     H2       HT       0.417000        1.0080           0
      2404 WT1      522      TIP3     OH2      OT      -0.834000       15.9994           0
      2405 WT1      522      TIP3     H1       HT       0.417000        1.0080           0
      2406 WT1      522      TIP3     H2       HT       0.417000        1.0080           0
      2407 WT1      523      TIP3     OH2      OT      -0.834000       15.9994           0
      2408 WT1      523      TIP3     H1       HT       0.417000        1.0080           0
      2409 WT1      523      TIP3     H2       HT       0.417000        1.0080           0
      2410 WT1      524      TIP3     OH2      OT      -0.834000       15.9994           0
      2411 WT1      524      TIP3     H1       HT       0.417000        1.0080           0
      2412 WT1      524      TIP3     H2       HT       0.417000        1.0080           0
      2413 WT1      525      TIP3     OH2      OT      -0.834000       15.9994           0
      2414 WT1      525      TIP3     H1       HT       0.417000        1.0080           0
      2415 WT1      525      TIP3     H2       HT       0.417000        1.0080           0
      2416 WT1      526      TIP3     OH2      OT      -0.834000       15.9994           0
      2417 WT1      526      TIP3     H1       HT       0.417000        1.0080           0
      2418 WT1      526      TIP3     H2       HT       0.417000        1.0080           0
      2419 WT1      527      TIP3     OH2      OT      -0.834000       15.9994           0
      2420 WT1      527      TIP3     H1       HT       0.417000        1.0080           0
      2421 WT1      527      TIP3     H2       HT       0.417000        1.0080           0
      2422 WT1      528      TIP3     OH2      OT      -0.834000       15.9994           0
      2423 WT1      528      TIP3     H1       HT       0.417000        1.0080           0
      2424 WT1      528      TIP3     H2       HT       0.417000        1.0080           0
      2425 WT1      529      TIP3     OH2      OT      -0.834000       15.9994           0
      2426 WT1      529      TIP3     H1       HT       0.417000        1.0080           0
      2427 WT1      529      TIP3     H2       HT       0.417000        1.0080           0
      2428 WT1      530      TIP3     OH2      OT      -0.834000       15.9994           0
      2429 WT1      530      TIP3     H1       HT       0.417000        1.0080           0
      2430 WT1      530      TIP3     H2       HT       0.417000        1.0080           0
      2431 WT1      531      TIP3     OH2      OT      -0.834000       15.9994           0
      2432 WT1      531      TIP3     H1       HT       0.417000        1.0080           0
      2433 WT1      531      TIP3     H2       HT       0.417000        1.0080           0
      2434 WT1      532      TIP3     OH2      OT      -0.834000       15.9994           0
      2435 WT1      532      TIP3     H1       HT       0.417000        1.0080           0
      2436 WT1      532      TIP3     H2       HT       0.417000        1.0080           0
      2437 WT1      533      TIP3     OH2      OT      -0.834000       15.9994           0
      2438 WT1      533      TIP3     H1       HT       0.417000        1.0080           0
      2439 WT1      533      TIP3     H2       HT       0.417000        1.0080           0
      2440 WT1      534      TIP3     OH2      OT      -0.834000       15.9994           0
      2441 WT1      534      TIP3     H1       HT       0.417000        1.0080           0
      2442 WT1      534      TIP3     H2       HT       0.417000        1.0080           0
      2443 WT1      535      TIP3     OH2      OT      -0.834000       15.9994           0
      2444 WT1      535      TIP3     H1       HT       0.417000        1.0080           0
      2445 WT1      535      TIP3     H2       HT       0.417000        1.0080           0
      2446 WT1      536      TIP3     OH2      OT      -0.834000       15.9994           0
      2447 WT1      536      TIP3     H1       HT       0.417000        1.0080           0
      2448 WT1      536      TIP3     H2       HT       0.417000        1.0080           0
      2449 WT1      537      TIP3     OH2      OT      -0.834000       15.9994           0
      2450 WT1      537      TIP3     H1       HT       0.417000        1.0080           0
      2451 WT1      537      TIP3     H2       HT       0.417000        1.0080           0
      2452 WT1      538      TIP3     OH2      OT      -0.834000       15.9994           0
      2453 WT1      538      TIP3     H1       HT       0.417000        1.0080           0
      2454 WT1      538      TIP3     H2       HT       0.417000        1.0080           0
      2455 WT1      539      TIP3     OH2      OT      -0.834000       15.9994           0
      2456 WT1      539      TIP3     H1       HT       0.417000        1.0080           0
      2457 WT1      539      TIP3     H2       HT       0.417000        1.0080           0
      2458 WT1      540      TIP3     OH2      OT      -0.834000       15.9994           0
      2459 WT1      540      TIP3     H1       HT       0.417000        1.0080           0
      2460 WT1      540      TIP3     H2       HT       0.417000        1.0080           0
      2461 WT1      541      TIP3     OH2      OT      -0.834000       15.9994           0
      2462 WT1      541      TIP3     H1       HT       0.417000        1.0080           0
      2463 WT1      541      TIP3     H2       HT       0.417000        1.0080           0
      2464 WT1      542      TIP3     OH2      OT      -0.834000       15.9994           0
      2465 WT1      542      TIP3     H1       HT       0.417000        1.0080           0
      2466 WT1      542      TIP3     H2       HT       0.417000        1.0080           0
      2467 WT1      543      TIP3     OH2      OT      -0.834000       15.9994           0
      2468 WT1      543      TIP3     H1       HT       0.417000        1.0080           0
      2469 WT1      543      TIP3     H2       HT       0.417000        1.0080           0
      2470 WT1      544      TIP3     OH2      OT      -0.834000       15.9994           0
      2471 WT1      544      TIP3     H1       HT       0.417000        1.0080           0
      2472 WT1      544      TIP3     H2       HT       0.417000        1.0080           0
      2473 WT1      545      TIP3     OH2      OT      -0.834000       15.9994           0
      2474 WT1      545      TIP3     H1       HT       0.417000        1.0080           0
      2475 WT1      545      TIP3     H2       HT       0.417000        1.0080           0
      2476 WT1      546      TIP3     OH2      OT      -0.834000       15.9994           0
      2477 WT1      546      TIP3     H1       HT       0.417000        1.0080           0
      2478 WT1      546      TIP3     H2       HT       0.417000        1.0080           0
      2479 WT1      547      TIP3     OH2      OT      -0.834000       15.9994           0
      2480 WT1      547      TIP3     H1       HT       0.417000        1.0080           0
      2481 WT1      547      TIP3     H2       HT       0.417000        1.0080           0
      2482 WT1      549      TIP3     OH2      OT      -0.834000       15.9994           0
      2483 WT1      549      TIP3     H1       HT       0.417000        1.0080           0
      2484 WT1      549      TIP3     H2       HT       0.417000        1.0080           0
      2485 WT1      550      TIP3     OH2      OT      -0.834000       15.9994           0
      2486 WT1      550      TIP3     H1       HT       0.417000        1.0080           0
      2487 WT1      550      TIP3     H2       HT       0.417000        1.0080           0
      2488 WT1      551      TIP3     OH2      OT      -0.834000       15.9994           0
      2489 WT1      551      TIP3     H1       HT       0.417000        1.0080           0
      2490 WT1      551      TIP3     H2       HT       0.417000        1.0080           0
      2491 WT1      552      TIP3     OH2      OT      -0.834000       15.9994           0
      2492 WT1      552      TIP3     H1       HT       0.417000        1.0080           0
      2493 WT1      552      TIP3     H2       HT       0.417000        1.0080           0
      2494 WT1      553      TIP3     OH2      OT      -0.834000       15.9994           0
      2495 WT1      553      TIP3     H1       HT       0.417000        1.0080           0
      2496 WT1      553      TIP3     H2       HT       0.417000        1.0080           0
      2497 WT1      554      TIP3     OH2      OT      -0.834000       15.9994           0
      2498 WT1      554      TIP3     H1       HT       0.417000        1.0080           0
      2499 WT1      554      TIP3     H2       HT       0.417000        1.0080           0
      2500 WT1      555      TIP3     OH2      OT      -0.834000       15.9994           0
      2501 WT1      555      TIP3     H1       HT       0.417000        1.0080           0
      2502 WT1      555      TIP3     H2       HT       0.417000        1.0080           0
      2503 WT1      556      TIP3     OH2      OT      -0.834000       15.9994           0
      2504 WT1      556      TIP3     H1       HT       0.417000        1.0080           0
      2505 WT1      556      TIP3     H2       HT       0.417000        1.0080           0
      2506 WT1      557      TIP3     OH2      OT      -0.834000       15.9994           0
      2507 WT1      557      TIP3     H1       HT       0.417000        1.0080           0
      2508 WT1      557      TIP3     H2       HT       0.417000        1.0080           0
      2509 WT1      558      TIP3     OH2      OT      -0.834000       15.9994           0
      2510 WT1      558      TIP3     H1       HT       0.417000        1.0080           0
      2511 WT1      558      TIP3     H2       HT       0.417000        1.0080           0
      2512 WT1      559      TIP3     OH2      OT      -0.834000       15.9994           0
      2513 WT1      559      TIP3     H1       HT       0.417000        1.0080           0
      2514 WT1      559      TIP3     H2       HT       0.417000        1.0080           0
      2515 WT1      560      TIP3     OH2      OT      -0.834000       15.9994           0
      2516 WT1      560      TIP3     H1       HT       0.417000        1.0080           0
      2517 WT1      560      TIP3     H2       HT       0.417000        1.0080           0
      2518 WT1      561      TIP3     OH2      OT      -0.834000       15.9994           0
      2519 WT1      561      TIP3     H1       HT       0.417000        1.0080           0
      2520 WT1      561      TIP3     H2       HT       0.417000        1.0080           0
      2521 WT1      562      TIP3     OH2      OT      -0.834000       15.9994           0
      2522 WT1      562      TIP3     H1       HT       0.417000        1.0080           0
      2523 WT1      562      TIP3     H2       HT       0.417000        1.0080           0
      2524 WT1      563      TIP3     OH2      OT      -0.834000       15.9994           0
      2525 WT1      563      TIP3     H1       HT       0.417000        1.0080           0
      2526 WT1      563      TIP3     H2       HT       0.417000        1.0080           0
      2527 WT1      564      TIP3     OH2      OT      -0.834000       15.9994           0
      2528 WT1      564      TIP3     H1       HT       0.417000        1.0080           0
      2529 WT1      564      TIP3     H2       HT       0.417000        1.0080           0
      2530 WT1      565      TIP3     OH2      OT      -0.834000       15.9994           0
      2531 WT1      565      TIP3     H1       HT       0.417000        1.0080           0
      2532 WT1      565      TIP3     H2       HT       0.417000        1.0080           0
      2533 WT1      567      TIP3     OH2      OT      -0.834000       15.9994           0
      2534 WT1      567      TIP3     H1       HT       0.417000        1.0080           0
      2535 WT1      567      TIP3     H2       HT       0.417000        1.0080           0
      2536 WT1      568      TIP3     OH2      OT      -0.834000       15.9994           0
      2537 WT1      568      TIP3     H1       HT       0.417000        1.0080           0
      2538 WT1      568      TIP3     H2       HT       0.417000        1.0080           0
      2539 WT1      569      TIP3     OH2      OT      -0.834000       15.9994           0
      2540 WT1      569      TIP3     H1       HT       0.417000        1.0080           0
      2541 WT1      569      TIP3     H2       HT       0.417000        1.0080           0
      2542 WT1      570      TIP3     OH2      OT      -0.834000       15.9994           0
      2543 WT1      570      TIP3     H1       HT       0.417000        1.0080           0
      2544 WT1      570      TIP3     H2       HT       0.417000        1.0080           0
      2545 WT1      571      TIP3     OH2      OT      -0.834000       15.9994           0
      2546 WT1      571      TIP3     H1       HT       0.417000        1.0080           0
      2547 WT1      571      TIP3     H2       HT       0.417000        1.0080           0
      2548 WT1      572      TIP3     OH2      OT      -0.834000       15.9994           0
      2549 WT1      572      TIP3     H1       HT       0.417000        1.0080           0
      2550 WT1      572      TIP3     H2       HT       0.417000        1.0080           0
      2551 WT1      573      TIP3     OH2      OT      -0.834000       15.9994           0
      2552 WT1      573      TIP3     H1       HT       0.417000        1.0080           0
      2553 WT1      573      TIP3     H2       HT       0.417000        1.0080           0
      2554 WT1      574      TIP3     OH2      OT      -0.834000       15.9994           0
      2555 WT1      574      TIP3     H1       HT       0.417000        1.0080           0
      2556 WT1      574      TIP3     H2       HT       0.417000        1.0080           0
      2557 WT1      575      TIP3     OH2      OT      -0.834000       15.9994           0
      2558 WT1      575      TIP3     H1       HT       0.417000        1.0080           0
      2559 WT1      575      TIP3     H2       HT       0.417000        1.0080           0
      2560 WT1      576      TIP3     OH2      OT      -0.834000       15.9994           0
      2561 WT1      576      TIP3     H1       HT       0.417000        1.0080           0
      2562 WT1      576      TIP3     H2       HT       0.417000        1.0080           0
      2563 WT1      577      TIP3     OH2      OT      -0.834000       15.9994           0
      2564 WT1      577      TIP3     H1       HT       0.417000        1.0080           0
      2565 WT1      577      TIP3     H2       HT       0.417000        1.0080           0
      2566 WT1      578      TIP3     OH2      OT      -0.834000       15.9994           0
      2567 WT1      578      TIP3     H1       HT       0.417000        1.0080           0
      2568 WT1      578      TIP3     H2       HT       0.417000        1.0080           0
      2569 WT1      579      TIP3     OH2      OT      -0.834000       15.9994           0
      2570 WT1      579      TIP3     H1       HT       0.417000        1.0080           0
      2571 WT1      579      TIP3     H2       HT       0.417000        1.0080           0
      2572 WT1      580      TIP3     OH2      OT      -0.834000       15.9994           0
      2573 WT1      580      TIP3     H1       HT       0.417000        1.0080           0
      2574 WT1      580      TIP3     H2       HT       0.417000        1.0080           0
      2575 WT1      581      TIP3     OH2      OT      -0.834000       15.9994           0
      2576 WT1      581      TIP3     H1       HT       0.417000        1.0080           0
      2577 WT1      581      TIP3     H2       HT       0.417000        1.0080           0
      2578 WT1      582      TIP3     OH2      OT      -0.834000       15.9994           0
      2579 WT1      582      TIP3     H1       HT       0.417000        1.0080           0
      2580 WT1      582      TIP3     H2       HT       0.417000        1.0080           0
      2581 WT1      583      TIP3     OH2      OT      -0.834000       15.9994           0
      2582 WT1      583      TIP3     H1       HT       0.417000        1.0080           0
      2583 WT1      583      TIP3     H2       HT       0.417000        1.0080           0
      2584 WT1      584      TIP3     OH2      OT      -0.834000       15.9994           0
      2585 WT1      584      TIP3     H1       HT       0.417000        1.0080           0
      2586 WT1      584      TIP3     H2       HT       0.417000        1.0080           0
      2587 WT1      585      TIP3     OH2      OT      -0.834000       15.9994           0
      2588 WT1      585      TIP3     H1       HT       0.417000        1.0080           0
      2589 WT1      585      TIP3     H2       HT       0.417000        1.0080           0
      2590 WT1      586      TIP3     OH2      OT      -0.834000       15.9994           0
      2591 WT1      586      TIP3     H1       HT       0.417000        1.0080           0
      2592 WT1      586      TIP3     H2       HT       0.417000        1.0080           0
      2593 WT1      587      TIP3     OH2      OT      -0.834000       15.9994           0
      2594 WT1      587      TIP3     H1       HT       0.417000        1.0080           0
      2595 WT1      587      TIP3     H2       HT       0.417000        1.0080           0
      2596 WT1      588      TIP3     OH2      OT      -0.834000       15.9994           0
      2597 WT1      588      TIP3     H1       HT       0.417000        1.0080           0
      2598 WT1      588      TIP3     H2       HT       0.417000        1.0080           0
      2599 WT1      589      TIP3     OH2      OT      -0.834000       15.9994           0
      2600 WT1      589      TIP3     H1       HT       0.417000        1.0080           0
      2601 WT1      589      TIP3     H2       HT       0.417000        1.0080           0
      2602 WT1      590      TIP3     OH2      OT      -0.834000       15.9994           0
      2603 WT1      590      TIP3     H1       HT       0.417000        1.0080           0
      2604 WT1      590      TIP3     H2       HT       0.417000        1.0080           0
      2605 WT1      591      TIP3     OH2      OT      -0.834000       15.9994           0
      2606 WT1      591      TIP3     H1       HT       0.417000        1.0080           0
      2607 WT1      591      TIP3     H2       HT       0.417000        1.0080           0
      2608 WT1      592      TIP3     OH2      OT      -0.834000       15.9994           0
      2609 WT1      592      TIP3     H1       HT       0.417000        1.0080           0
      2610 WT1      592      TIP3     H2       HT       0.417000        1.0080           0
      2611 WT1      593      TIP3     OH2      OT      -0.834000       15.9994           0
      2612 WT1      593      TIP3     H1       HT       0.417000        1.0080           0
      2613 WT1      593      TIP3     H2       HT       0.417000        1.0080           0
      2614 WT1      594      TIP3     OH2      OT      -0.834000       15.9994           0
      2615 WT1      594      TIP3     H1       HT       0.417000        1.0080           0
      2616 WT1      594      TIP3     H2       HT       0.417000        1.0080           0
      2617 WT1      595      TIP3     OH2      OT      -0.834000       15.9994           0
      2618 WT1      595      TIP3     H1       HT       0.417000        1.0080           0
      2619 WT1      595      TIP3     H2       HT       0.417000        1.0080           0
      2620 WT1      596      TIP3     OH2      OT      -0.834000       15.9994           0
      2621 WT1      596      TIP3     H1       HT       0.417000        1.0080           0
      2622 WT1      596      TIP3     H2       HT       0.417000        1.0080           0
      2623 WT1      597      TIP3     OH2      OT      -0.834000       15.9994           0
      2624 WT1      597      TIP3     H1       HT       0.417000        1.0080           0
      2625 WT1      597      TIP3     H2       HT       0.417000        1.0080           0
      2626 WT1      598      TIP3     OH2      OT      -0.834000       15.9994           0
      2627 WT1      598      TIP3     H1       HT       0.417000        1.0080           0
      2628 WT1      598      TIP3     H2       HT       0.417000        1.0080           0
      2629 WT1      599      TIP3     OH2      OT      -0.834000       15.9994           0
      2630 WT1      599      TIP3     H1       HT       0.417000        1.0080           0
      2631 WT1      599      TIP3     H2       HT       0.417000        1.0080           0
      2632 WT1      600      TIP3     OH2      OT      -0.834000       15.9994           0
      2633 WT1      600      TIP3     H1       HT       0.417000        1.0080           0
      2634 WT1      600      TIP3     H2       HT       0.417000        1.0080           0
      2635 WT1      601      TIP3     OH2      OT      -0.834000       15.9994           0
      2636 WT1      601      TIP3     H1       HT       0.417000        1.0080           0
      2637 WT1      601      TIP3     H2       HT       0.417000        1.0080           0
      2638 WT1      602      TIP3     OH2      OT      -0.834000       15.9994           0
      2639 WT1      602      TIP3     H1       HT       0.417000        1.0080           0
      2640 WT1      602      TIP3     H2       HT       0.417000        1.0080           0
      2641 WT1      603      TIP3     OH2      OT      -0.834000       15.9994           0
      2642 WT1      603      TIP3     H1       HT       0.417000        1.0080           0
      2643 WT1      603      TIP3     H2       HT       0.417000        1.0080           0
      2644 WT1      604      TIP3     OH2      OT      -0.834000       15.9994           0
      2645 WT1      604      TIP3     H1       HT       0.417000        1.0080           0
      2646 WT1      604      TIP3     H2       HT       0.417000        1.0080           0
      2647 WT1      605      TIP3     OH2      OT      -0.834000       15.9994           0
      2648 WT1      605      TIP3     H1       HT       0.417000        1.0080           0
      2649 WT1      605      TIP3     H2       HT       0.417000        1.0080           0
      2650 WT1      606      TIP3     OH2      OT      -0.834000       15.9994           0
      2651 WT1      606      TIP3     H1       HT       0.417000        1.0080           0
      2652 WT1      606      TIP3     H2       HT       0.417000        1.0080           0
      2653 WT1      607      TIP3     OH2      OT      -0.834000       15.9994           0
      2654 WT1      607      TIP3     H1       HT       0.417000        1.0080           0
      2655 WT1      607      TIP3     H2       HT       0.417000        1.0080           0
      2656 WT1      608      TIP3     OH2      OT      -0.834000       15.9994           0
      2657 WT1      608      TIP3     H1       HT       0.417000        1.0080           0
      2658 WT1      608      TIP3     H2       HT       0.417000        1.0080           0
      2659 WT1      609      TIP3     OH2      OT      -0.834000       15.9994           0
      2660 WT1      609      TIP3     H1       HT       0.417000        1.0080           0
      2661 WT1      609      TIP3     H2       HT       0.417000        1.0080           0
      2662 WT1      610      TIP3     OH2      OT      -0.834000       15.9994           0
      2663 WT1      610      TIP3     H1       HT       0.417000        1.0080           0
      2664 WT1      610      TIP3     H2       HT       0.417000        1.0080           0
      2665 WT1      611      TIP3     OH2      OT      -0.834000       15.9994           0
      2666 WT1      611      TIP3     H1       HT       0.417000        1.0080           0
      2667 WT1      611      TIP3     H2       HT       0.417000        1.0080           0
      2668 WT1      612      TIP3     OH2      OT      -0.834000       15.9994           0
      2669 WT1      612      TIP3     H1       HT       0.417000        1.0080           0
      2670 WT1      612      TIP3     H2       HT       0.417000        1.0080           0
      2671 WT1      613      TIP3     OH2      OT      -0.834000       15.9994           0
      2672 WT1      613      TIP3     H1       HT       0.417000        1.0080           0
      2673 WT1      613      TIP3     H2       HT       0.417000        1.0080           0
      2674 WT1      614      TIP3     OH2      OT      -0.834000       15.9994           0
      2675 WT1      614      TIP3     H1       HT       0.417000        1.0080           0
      2676 WT1      614      TIP3     H2       HT       0.417000        1.0080           0
      2677 WT1      615      TIP3     OH2      OT      -0.834000       15.9994           0
      2678 WT1      615      TIP3     H1       HT       0.417000        1.0080           0
      2679 WT1      615      TIP3     H2       HT       0.417000        1.0080           0
      2680 WT1      616      TIP3     OH2      OT      -0.834000       15.9994           0
      2681 WT1      616      TIP3     H1       HT       0.417000        1.0080           0
      2682 WT1      616      TIP3     H2       HT       0.417000        1.0080           0
      2683 WT1      617      TIP3     OH2      OT      -0.834000       15.9994           0
      2684 WT1      617      TIP3     H1       HT       0.417000        1.0080           0
      2685 WT1      617      TIP3     H2       HT       0.417000        1.0080           0
      2686 WT1      618      TIP3     OH2      OT      -0.834000       15.9994           0
      2687 WT1      618      TIP3     H1       HT       0.417000        1.0080           0
      2688 WT1      618      TIP3     H2       HT       0.417000        1.0080           0
      2689 WT1      619      TIP3     OH2      OT      -0.834000       15.9994           0
      2690 WT1      619      TIP3     H1       HT       0.417000        1.0080           0
      2691 WT1      619      TIP3     H2       HT       0.417000        1.0080           0
      2692 WT1      620      TIP3     OH2      OT      -0.834000       15.9994           0
      2693 WT1      620      TIP3     H1       HT       0.417000        1.0080           0
      2694 WT1      620      TIP3     H2       HT       0.417000        1.0080           0
      2695 WT1      621      TIP3     OH2      OT      -0.834000       15.9994           0
      2696 WT1      621      TIP3     H1       HT       0.417000        1.0080           0
      2697 WT1      621      TIP3     H2       HT       0.417000        1.0080           0
      2698 WT1      622      TIP3     OH2      OT      -0.834000       15.9994           0
      2699 WT1      622      TIP3     H1       HT       0.417000        1.0080           0
      2700 WT1      622      TIP3     H2       HT       0.417000        1.0080           0
      2701 WT1      623      TIP3     OH2      OT      -0.834000       15.9994           0
      2702 WT1      623      TIP3     H1       HT       0.417000        1.0080           0
      2703 WT1      623      TIP3     H2       HT       0.417000        1.0080           0
      2704 WT1      624      TIP3     OH2      OT      -0.834000       15.9994           0
      2705 WT1      624      TIP3     H1       HT       0.417000        1.0080           0
      2706 WT1      624      TIP3     H2       HT       0.417000        1.0080           0
      2707 WT1      625      TIP3     OH2      OT      -0.834000       15.9994           0
      2708 WT1      625      TIP3     H1       HT       0.417000        1.0080           0
      2709 WT1      625      TIP3     H2       HT       0.417000        1.0080           0
      2710 WT1      626      TIP3     OH2      OT      -0.834000       15.9994           0
      2711 WT1      626      TIP3     H1       HT       0.417000        1.0080           0
      2712 WT1      626      TIP3     H2       HT       0.417000        1.0080           0
      2713 WT1      627      TIP3     OH2      OT      -0.834000       15.9994           0
      2714 WT1      627      TIP3     H1       HT       0.417000        1.0080           0
      2715 WT1      627      TIP3     H2       HT       0.417000        1.0080           0
      2716 WT1      628      TIP3     OH2      OT      -0.834000       15.9994           0
      2717 WT1      628      TIP3     H1       HT       0.417000        1.0080           0
      2718 WT1      628      TIP3     H2       HT       0.417000        1.0080           0
      2719 WT1      629      TIP3     OH2      OT      -0.834000       15.9994           0
      2720 WT1      629      TIP3     H1       HT       0.417000        1.0080           0
      2721 WT1      629      TIP3     H2       HT       0.417000        1.0080           0
      2722 WT1      630      TIP3     OH2      OT      -0.834000       15.9994           0
      2723 WT1      630      TIP3     H1       HT       0.417000        1.0080           0
      2724 WT1      630      TIP3     H2       HT       0.417000        1.0080           0
      2725 WT1      631      TIP3     OH2      OT      -0.834000       15.9994           0
      2726 WT1      631      TIP3     H1       HT       0.417000        1.0080           0
      2727 WT1      631      TIP3     H2       HT       0.417000        1.0080           0
      2728 WT1      632      TIP3     OH2      OT      -0.834000       15.9994           0
      2729 WT1      632      TIP3     H1       HT       0.417000        1.0080           0
      2730 WT1      632      TIP3     H2       HT       0.417000        1.0080           0
      2731 WT1      633      TIP3     OH2      OT      -0.834000       15.9994           0
      2732 WT1      633      TIP3     H1       HT       0.417000        1.0080           0
      2733 WT1      633      TIP3     H2       HT       0.417000        1.0080           0
      2734 WT1      634      TIP3     OH2      OT      -0.834000       15.9994           0
      2735 WT1      634      TIP3     H1       HT       0.417000        1.0080           0
      2736 WT1      634      TIP3     H2       HT       0.417000        1.0080           0
      2737 WT1      635      TIP3     OH2      OT      -0.834000       15.9994           0
      2738 WT1      635      TIP3     H1       HT       0.417000        1.0080           0
      2739 WT1      635      TIP3     H2       HT       0.417000        1.0080           0
      2740 WT1      636      TIP3     OH2      OT      -0.834000       15.9994           0
      2741 WT1      636      TIP3     H1       HT       0.417000        1.0080           0
      2742 WT1      636      TIP3     H2       HT       0.417000        1.0080           0
      2743 WT1      637      TIP3     OH2      OT      -0.834000       15.9994           0
      2744 WT1      637      TIP3     H1       HT       0.417000        1.0080           0
      2745 WT1      637      TIP3     H2       HT       0.417000        1.0080           0
      2746 WT1      638      TIP3     OH2      OT      -0.834000       15.9994           0
      2747 WT1      638      TIP3     H1       HT       0.417000        1.0080           0
      2748 WT1      638      TIP3     H2       HT       0.417000        1.0080           0
      2749 WT1      639      TIP3     OH2      OT      -0.834000       15.9994           0
      2750 WT1      639      TIP3     H1       HT       0.417000        1.0080           0
      2751 WT1      639      TIP3     H2       HT       0.417000        1.0080           0
      2752 WT1      640      TIP3     OH2      OT      -0.834000       15.9994           0
      2753 WT1      640      TIP3     H1       HT       0.417000        1.0080           0
      2754 WT1      640      TIP3     H2       HT       0.417000        1.0080           0
      2755 WT1      641      TIP3     OH2      OT      -0.834000       15.9994           0
      2756 WT1      641      TIP3     H1       HT       0.417000        1.0080           0
      2757 WT1      641      TIP3     H2       HT       0.417000        1.0080           0
      2758 WT1      642      TIP3     OH2      OT      -0.834000       15.9994           0
      2759 WT1      642      TIP3     H1       HT       0.417000        1.0080           0
      2760 WT1      642      TIP3     H2       HT       0.417000        1.0080           0
      2761 WT1      643      TIP3     OH2      OT      -0.834000       15.9994           0
      2762 WT1      643      TIP3     H1       HT       0.417000        1.0080           0
      2763 WT1      643      TIP3     H2       HT       0.417000        1.0080           0
      2764 WT1      644      TIP3     OH2      OT      -0.834000       15.9994           0
      2765 WT1      644      TIP3     H1       HT       0.417000        1.0080           0
      2766 WT1      644      TIP3     H2       HT       0.417000        1.0080           0
      2767 WT1      645      TIP3     OH2      OT      -0.834000       15.9994           0
      2768 WT1      645      TIP3     H1       HT       0.417000        1.0080           0
      2769 WT1      645      TIP3     H2       HT       0.417000        1.0080           0
      2770 WT1      646      TIP3     OH2      OT      -0.834000       15.9994           0
      2771 WT1      646      TIP3     H1       HT       0.417000        1.0080           0
      2772 WT1      646      TIP3     H2       HT       0.417000        1.0080           0
      2773 WT1      647      TIP3     OH2      OT      -0.834000       15.9994           0
      2774 WT1      647      TIP3     H1       HT       0.417000        1.0080           0
      2775 WT1      647      TIP3     H2       HT       0.417000        1.0080           0
      2776 WT1      648      TIP3     OH2      OT      -0.834000       15.9994           0
      2777 WT1      648      TIP3     H1       HT       0.417000        1.0080           0
      2778 WT1      648      TIP3     H2       HT       0.417000        1.0080           0
      2779 WT1      649      TIP3     OH2      OT      -0.834000       15.9994           0
      2780 WT1      649      TIP3     H1       HT       0.417000        1.0080           0
      2781 WT1      649      TIP3     H2       HT       0.417000        1.0080           0
      2782 WT1      650      TIP3     OH2      OT      -0.834000       15.9994           0
      2783 WT1      650      TIP3     H1       HT       0.417000        1.0080           0
      2784 WT1      650      TIP3     H2       HT       0.417000        1.0080           0
      2785 WT1      651      TIP3     OH2      OT      -0.834000       15.9994           0
      2786 WT1      651      TIP3     H1       HT       0.417000        1.0080           0
      2787 WT1      651      TIP3     H2       HT       0.417000        1.0080           0
      2788 WT1      652      TIP3     OH2      OT      -0.834000       15.9994           0
      2789 WT1      652      TIP3     H1       HT       0.417000        1.0080           0
      2790 WT1      652      TIP3     H2       HT       0.417000        1.0080           0
      2791 WT1      653      TIP3     OH2      OT      -0.834000       15.9994           0
      2792 WT1      653      TIP3     H1       HT       0.417000        1.0080           0
      2793 WT1      653      TIP3     H2       HT       0.417000        1.0080           0
      2794 WT1      654      TIP3     OH2      OT      -0.834000       15.9994           0
      2795 WT1      654      TIP3     H1       HT       0.417000        1.0080           0
      2796 WT1      654      TIP3     H2       HT       0.417000        1.0080           0
      2797 WT1      655      TIP3     OH2      OT      -0.834000       15.9994           0
      2798 WT1      655      TIP3     H1       HT       0.417000        1.0080           0
      2799 WT1      655      TIP3     H2       HT       0.417000        1.0080           0
      2800 WT1      656      TIP3     OH2      OT      -0.834000       15.9994           0
      2801 WT1      656      TIP3     H1       HT       0.417000        1.0080           0
      2802 WT1      656      TIP3     H2       HT       0.417000        1.0080           0
      2803 WT1      657      TIP3     OH2      OT      -0.834000       15.9994           0
      2804 WT1      657      TIP3     H1       HT       0.417000        1.0080           0
      2805 WT1      657      TIP3     H2       HT       0.417000        1.0080           0
      2806 WT1      658      TIP3     OH2      OT      -0.834000       15.9994           0
      2807 WT1      658      TIP3     H1       HT       0.417000        1.0080           0
      2808 WT1      658      TIP3     H2       HT       0.417000        1.0080           0
      2809 WT1      659      TIP3     OH2      OT      -0.834000       15.9994           0
      2810 WT1      659      TIP3     H1       HT       0.417000        1.0080           0
      2811 WT1      659      TIP3     H2       HT       0.417000        1.0080           0
      2812 WT1      660      TIP3     OH2      OT      -0.834000       15.9994           0
      2813 WT1      660      TIP3     H1       HT       0.417000        1.0080           0
      2814 WT1      660      TIP3     H2       HT       0.417000        1.0080           0
      2815 WT1      661      TIP3     OH2      OT      -0.834000       15.9994           0
      2816 WT1      661      TIP3     H1       HT       0.417000        1.0080           0
      2817 WT1      661      TIP3     H2       HT       0.417000        1.0080           0
      2818 WT1      662      TIP3     OH2      OT      -0.834000       15.9994           0
      2819 WT1      662      TIP3     H1       HT       0.417000        1.0080           0
      2820 WT1      662      TIP3     H2       HT       0.417000        1.0080           0
      2821 WT1      663      TIP3     OH2      OT      -0.834000       15.9994           0
      2822 WT1      663      TIP3     H1       HT       0.417000        1.0080           0
      2823 WT1      663      TIP3     H2       HT       0.417000        1.0080           0
      2824 WT1      664      TIP3     OH2      OT      -0.834000       15.9994           0
      2825 WT1      664      TIP3     H1       HT       0.417000        1.0080           0
      2826 WT1      664      TIP3     H2       HT       0.417000        1.0080           0
      2827 WT1      665      TIP3     OH2      OT      -0.834000       15.9994           0
      2828 WT1      665      TIP3     H1       HT       0.417000        1.0080           0
      2829 WT1      665      TIP3     H2       HT       0.417000        1.0080           0
      2830 WT1      666      TIP3     OH2      OT      -0.834000       15.9994           0
      2831 WT1      666      TIP3     H1       HT       0.417000        1.0080           0
      2832 WT1      666      TIP3     H2       HT       0.417000        1.0080           0
      2833 WT1      667      TIP3     OH2      OT      -0.834000       15.9994           0
      2834 WT1      667      TIP3     H1       HT       0.417000        1.0080           0
      2835 WT1      667      TIP3     H2       HT       0.417000        1.0080           0
      2836 WT1      668      TIP3     OH2      OT      -0.834000       15.9994           0
      2837 WT1      668      TIP3     H1       HT       0.417000        1.0080           0
      2838 WT1      668      TIP3     H2       HT       0.417000        1.0080           0
      2839 WT1      669      TIP3     OH2      OT      -0.834000       15.9994           0
      2840 WT1      669      TIP3     H1       HT       0.417000        1.0080           0
      2841 WT1      669      TIP3     H2       HT       0.417000        1.0080           0
      2842 WT1      670      TIP3     OH2      OT      -0.834000       15.9994           0
      2843 WT1      670      TIP3     H1       HT       0.417000        1.0080           0
      2844 WT1      670      TIP3     H2       HT       0.417000        1.0080           0
      2845 WT1      671      TIP3     OH2      OT      -0.834000       15.9994           0
      2846 WT1      671      TIP3     H1       HT       0.417000        1.0080           0
      2847 WT1      671      TIP3     H2       HT       0.417000        1.0080           0
      2848 WT1      672      TIP3     OH2      OT      -0.834000       15.9994           0
      2849 WT1      672      TIP3     H1       HT       0.417000        1.0080           0
      2850 WT1      672      TIP3     H2       HT       0.417000        1.0080           0
      2851 WT1      673      TIP3     OH2      OT      -0.834000       15.9994           0
      2852 WT1      673      TIP3     H1       HT       0.417000        1.0080           0
      2853 WT1      673      TIP3     H2       HT       0.417000        1.0080           0
      2854 WT1      674      TIP3     OH2      OT      -0.834000       15.9994           0
      2855 WT1      674      TIP3     H1       HT       0.417000        1.0080           0
      2856 WT1      674      TIP3     H2       HT       0.417000        1.0080           0
      2857 WT1      675      TIP3     OH2      OT      -0.834000       15.9994           0
      2858 WT1      675      TIP3     H1       HT       0.417000        1.0080           0
      2859 WT1      675      TIP3     H2       HT       0.417000        1.0080           0
      2860 WT1      676      TIP3     OH2      OT      -0.834000       15.9994           0
      2861 WT1      676      TIP3     H1       HT       0.417000        1.0080           0
      2862 WT1      676      TIP3     H2       HT       0.417000        1.0080           0
      2863 WT1      677      TIP3     OH2      OT      -0.834000       15.9994           0
      2864 WT1      677      TIP3     H1       HT       0.417000        1.0080           0
      2865 WT1      677      TIP3     H2       HT       0.417000        1.0080           0
      2866 WT1      679      TIP3     OH2      OT      -0.834000       15.9994           0
      2867 WT1      679      TIP3     H1       HT       0.417000        1.0080           0
      2868 WT1      679      TIP3     H2       HT       0.417000        1.0080           0
      2869 WT1      680      TIP3     OH2      OT      -0.834000       15.9994           0
      2870 WT1      680      TIP3     H1       HT       0.417000        1.0080           0
      2871 WT1      680      TIP3     H2       HT       0.417000        1.0080           0
      2872 WT1      681      TIP3     OH2      OT      -0.834000       15.9994           0
      2873 WT1      681      TIP3     H1       HT       0.417000        1.0080           0
      2874 WT1      681      TIP3     H2       HT       0.417000        1.0080           0
      2875 WT1      682      TIP3     OH2      OT      -0.834000       15.9994           0
      2876 WT1      682      TIP3     H1       HT       0.417000        1.0080           0
      2877 WT1      682      TIP3     H2       HT       0.417000        1.0080           0
      2878 WT1      683      TIP3     OH2      OT      -0.834000       15.9994           0
      2879 WT1      683      TIP3     H1       HT       0.417000        1.0080           0
      2880 WT1      683      TIP3     H2       HT       0.417000        1.0080           0
      2881 WT1      684      TIP3     OH2      OT      -0.834000       15.9994           0
      2882 WT1      684      TIP3     H1       HT       0.417000        1.0080           0
      2883 WT1      684      TIP3     H2       HT       0.417000        1.0080           0
      2884 WT1      685      TIP3     OH2      OT      -0.834000       15.9994           0
      2885 WT1      685      TIP3     H1       HT       0.417000        1.0080           0
      2886 WT1      685      TIP3     H2       HT       0.417000        1.0080           0
      2887 WT1      686      TIP3     OH2      OT      -0.834000       15.9994           0
      2888 WT1      686      TIP3     H1       HT       0.417000        1.0080           0
      2889 WT1      686      TIP3     H2       HT       0.417000        1.0080           0
      2890 WT1      687      TIP3     OH2      OT      -0.834000       15.9994           0
      2891 WT1      687      TIP3     H1       HT       0.417000        1.0080           0
      2892 WT1      687      TIP3     H2       HT       0.417000        1.0080           0
      2893 WT1      689      TIP3     OH2      OT      -0.834000       15.9994           0
      2894 WT1      689      TIP3     H1       HT       0.417000        1.0080           0
      2895 WT1      689      TIP3     H2       HT       0.417000        1.0080           0
      2896 WT1      690      TIP3     OH2      OT      -0.834000       15.9994           0
      2897 WT1      690      TIP3     H1       HT       0.417000        1.0080           0
      2898 WT1      690      TIP3     H2       HT       0.417000        1.0080           0
      2899 WT1      692      TIP3     OH2      OT      -0.834000       15.9994           0
      2900 WT1      692      TIP3     H1       HT       0.417000        1.0080           0
      2901 WT1      692      TIP3     H2       HT       0.417000        1.0080           0
      2902 WT1      693      TIP3     OH2      OT      -0.834000       15.9994           0
      2903 WT1      693      TIP3     H1       HT       0.417000        1.0080           0
      2904 WT1      693      TIP3     H2       HT       0.417000        1.0080           0
      2905 WT1      694      TIP3     OH2      OT      -0.834000       15.9994           0
      2906 WT1      694      TIP3     H1       HT       0.417000        1.0080           0
      2907 WT1      694      TIP3     H2       HT       0.417000        1.0080           0
      2908 WT1      695      TIP3     OH2      OT      -0.834000       15.9994           0
      2909 WT1      695      TIP3     H1       HT       0.417000        1.0080           0
      2910 WT1      695      TIP3     H2       HT       0.417000        1.0080           0
      2911 WT1      696      TIP3     OH2      OT      -0.834000       15.9994           0
      2912 WT1      696      TIP3     H1       HT       0.417000        1.0080           0
      2913 WT1      696      TIP3     H2       HT       0.417000        1.0080           0
      2914 WT1      697      TIP3     OH2      OT      -0.834000       15.9994           0
      2915 WT1      697      TIP3     H1       HT       0.417000        1.0080           0
      2916 WT1      697      TIP3     H2       HT       0.417000        1.0080           0
      2917 WT1      698      TIP3     OH2      OT      -0.834000       15.9994           0
      2918 WT1      698      TIP3     H1       HT       0.417000        1.0080           0
      2919 WT1      698      TIP3     H2       HT       0.417000        1.0080           0
      2920 WT1      699      TIP3     OH2      OT      -0.834000       15.9994           0
      2921 WT1      699      TIP3     H1       HT       0.417000        1.0080           0
      2922 WT1      699      TIP3     H2       HT       0.417000        1.0080           0
      2923 WT1      700      TIP3     OH2      OT      -0.834000       15.9994           0
      2924 WT1      700      TIP3     H1       HT       0.417000        1.0080           0
      2925 WT1      700      TIP3     H2       HT       0.417000        1.0080           0
      2926 WT1      701      TIP3     OH2      OT      -0.834000       15.9994           0
      2927 WT1      701      TIP3     H1       HT       0.417000        1.0080           0
      2928 WT1      701      TIP3     H2       HT       0.417000        1.0080           0
      2929 WT1      702      TIP3     OH2      OT      -0.834000       15.9994           0
      2930 WT1      702      TIP3     H1       HT       0.417000        1.0080           0
      2931 WT1      702      TIP3     H2       HT       0.417000        1.0080           0
      2932 WT1      703      TIP3     OH2      OT      -0.834000       15.9994           0
      2933 WT1      703      TIP3     H1       HT       0.417000        1.0080           0
      2934 WT1      703      TIP3     H2       HT       0.417000        1.0080           0
      2935 WT1      704      TIP3     OH2      OT      -0.834000       15.9994           0
      2936 WT1      704      TIP3     H1       HT       0.417000        1.0080           0
      2937 WT1      704      TIP3     H2       HT       0.417000        1.0080           0
      2938 WT1      705      TIP3     OH2      OT      -0.834000       15.9994           0
      2939 WT1      705      TIP3     H1       HT       0.417000        1.0080           0
      2940 WT1      705      TIP3     H2       HT       0.417000        1.0080           0
      2941 WT1      706      TIP3     OH2      OT      -0.834000       15.9994           0
      2942 WT1      706      TIP3     H1       HT       0.417000        1.0080           0
      2943 WT1      706      TIP3     H2       HT       0.417000        1.0080           0
      2944 WT1      707      TIP3     OH2      OT      -0.834000       15.9994           0
      2945 WT1      707      TIP3     H1       HT       0.417000        1.0080           0
      2946 WT1      707      TIP3     H2       HT       0.417000        1.0080           0
      2947 WT1      708      TIP3     OH2      OT      -0.834000       15.9994           0
      2948 WT1      708      TIP3     H1       HT       0.417000        1.0080           0
      2949 WT1      708      TIP3     H2       HT       0.417000        1.0080           0
      2950 WT1      709      TIP3     OH2      OT      -0.834000       15.9994           0
      2951 WT1      709      TIP3     H1       HT       0.417000        1.0080           0
      2952 WT1      709      TIP3     H2       HT       0.417000        1.0080           0
      2953 WT1      710      TIP3     OH2      OT      -0.834000       15.9994           0
      2954 WT1      710      TIP3     H1       HT       0.417000        1.0080           0
      2955 WT1      710      TIP3     H2       HT       0.417000        1.0080           0
      2956 WT1      711      TIP3     OH2      OT      -0.834000       15.9994           0
      2957 WT1      711      TIP3     H1       HT       0.417000        1.0080           0
      2958 WT1      711      TIP3     H2       HT       0.417000        1.0080           0
      2959 WT1      712      TIP3     OH2      OT      -0.834000       15.9994           0
      2960 WT1      712      TIP3     H1       HT       0.417000        1.0080           0
      2961 WT1      712      TIP3     H2       HT       0.417000        1.0080           0
      2962 WT1      713      TIP3     OH2      OT      -0.834000       15.9994           0
      2963 WT1      713      TIP3     H1       HT       0.417000        1.0080           0
      2964 WT1      713      TIP3     H2       HT       0.417000        1.0080           0
      2965 WT1      714      TIP3     OH2      OT      -0.834000       15.9994           0
      2966 WT1      714      TIP3     H1       HT       0.417000        1.0080           0
      2967 WT1      714      TIP3     H2       HT       0.417000        1.0080           0
      2968 WT1      715      TIP3     OH2      OT      -0.834000       15.9994           0
      2969 WT1      715      TIP3     H1       HT       0.417000        1.0080           0
      2970 WT1      715      TIP3     H2       HT       0.417000        1.0080           0
      2971 WT1      716      TIP3     OH2      OT      -0.834000       15.9994           0
      2972 WT1      716      TIP3     H1       HT       0.417000        1.0080           0
      2973 WT1      716      TIP3     H2       HT       0.417000        1.0080           0
      2974 WT1      717      TIP3     OH2      OT      -0.834000       15.9994           0
      2975 WT1      717      TIP3     H1       HT       0.417000        1.0080           0
      2976 WT1      717      TIP3     H2       HT       0.417000        1.0080           0
      2977 WT1      718      TIP3     OH2      OT      -0.834000       15.9994           0
      2978 WT1      718      TIP3     H1       HT       0.417000        1.0080           0
      2979 WT1      718      TIP3     H2       HT       0.417000        1.0080           0
      2980 WT1      719      TIP3     OH2      OT      -0.834000       15.9994           0
      2981 WT1      719      TIP3     H1       HT       0.417000        1.0080           0
      2982 WT1      719      TIP3     H2       HT       0.417000        1.0080           0
      2983 WT1      720      TIP3     OH2      OT      -0.834000       15.9994           0
      2984 WT1      720      TIP3     H1       HT       0.417000        1.0080           0
      2985 WT1      720      TIP3     H2       HT       0.417000        1.0080           0
      2986 WT1      721      TIP3     OH2      OT      -0.834000       15.9994           0
      2987 WT1      721      TIP3     H1       HT       0.417000        1.0080           0
      2988 WT1      721      TIP3     H2       HT       0.417000        1.0080           0
      2989 WT1      722      TIP3     OH2      OT      -0.834000       15.9994           0
      2990 WT1      722      TIP3     H1       HT       0.417000        1.0080           0
      2991 WT1      722      TIP3     H2       HT       0.417000        1.0080           0
      2992 WT1      723      TIP3     OH2      OT      -0.834000       15.9994           0
      2993 WT1      723      TIP3     H1       HT       0.417000        1.0080           0
      2994 WT1      723      TIP3     H2       HT       0.417000        1.0080           0
      2995 WT1      724      TIP3     OH2      OT      -0.834000       15.9994           0
      2996 WT1      724      TIP3     H1       HT       0.417000        1.0080           0
      2997 WT1      724      TIP3     H2       HT       0.417000        1.0080           0
      2998 WT1      725      TIP3     OH2      OT      -0.834000       15.9994           0
      2999 WT1      725      TIP3     H1       HT       0.417000        1.0080           0
      3000 WT1      725      TIP3     H2       HT       0.417000        1.0080           0
      3001 WT1      726      TIP3     OH2      OT      -0.834000       15.9994           0
      3002 WT1      726      TIP3     H1       HT       0.417000        1.0080           0
      3003 WT1      726      TIP3     H2       HT       0.417000        1.0080           0
      3004 WT1      727      TIP3     OH2      OT      -0.834000       15.9994           0
      3005 WT1      727      TIP3     H1       HT       0.417000        1.0080           0
      3006 WT1      727      TIP3     H2       HT       0.417000        1.0080           0
      3007 WT1      728      TIP3     OH2      OT      -0.834000       15.9994           0
      3008 WT1      728      TIP3     H1       HT       0.417000        1.0080           0
      3009 WT1      728      TIP3     H2       HT       0.417000        1.0080           0
      3010 WT1      729      TIP3     OH2      OT      -0.834000       15.9994           0
      3011 WT1      729      TIP3     H1       HT       0.417000        1.0080           0
      3012 WT1      729      TIP3     H2       HT       0.417000        1.0080           0
      3013 WT1      730      TIP3     OH2      OT      -0.834000       15.9994           0
      3014 WT1      730      TIP3     H1       HT       0.417000        1.0080           0
      3015 WT1      730      TIP3     H2       HT       0.417000        1.0080           0
      3016 WT1      731      TIP3     OH2      OT      -0.834000       15.9994           0
      3017 WT1      731      TIP3     H1       HT       0.417000        1.0080           0
      3018 WT1      731      TIP3     H2       HT       0.417000        1.0080           0
      3019 WT1      732      TIP3     OH2      OT      -0.834000       15.9994           0
      3020 WT1      732      TIP3     H1       HT       0.417000        1.0080           0
      3021 WT1      732      TIP3     H2       HT       0.417000        1.0080           0
      3022 WT1      733      TIP3     OH2      OT      -0.834000       15.9994           0
      3023 WT1      733      TIP3     H1       HT       0.417000        1.0080           0
      3024 WT1      733      TIP3     H2       HT       0.417000        1.0080           0
      3025 WT1      734      TIP3     OH2      OT      -0.834000       15.9994           0
      3026 WT1      734      TIP3     H1       HT       0.417000        1.0080           0
      3027 WT1      734      TIP3     H2       HT       0.417000        1.0080           0
      3028 WT1      735      TIP3     OH2      OT      -0.834000       15.9994           0
      3029 WT1      735      TIP3     H1       HT       0.417000        1.0080           0
      3030 WT1      735      TIP3     H2       HT       0.417000        1.0080           0
      3031 WT1      736      TIP3     OH2      OT      -0.834000       15.9994           0
      3032 WT1      736      TIP3     H1       HT       0.417000        1.0080           0
      3033 WT1      736      TIP3     H2       HT       0.417000        1.0080           0
      3034 WT1      737      TIP3     OH2      OT      -0.834000       15.9994           0
      3035 WT1      737      TIP3     H1       HT       0.417000        1.0080           0
      3036 WT1      737      TIP3     H2       HT       0.417000        1.0080           0
      3037 WT1      738      TIP3     OH2      OT      -0.834000       15.9994           0
      3038 WT1      738      TIP3     H1       HT       0.417000        1.0080           0
      3039 WT1      738      TIP3     H2       HT       0.417000        1.0080           0
      3040 WT1      739      TIP3     OH2      OT      -0.834000       15.9994           0
      3041 WT1      739      TIP3     H1       HT       0.417000        1.0080           0
      3042 WT1      739      TIP3     H2       HT       0.417000        1.0080           0
      3043 WT1      740      TIP3     OH2      OT      -0.834000       15.9994           0
      3044 WT1      740      TIP3     H1       HT       0.417000        1.0080           0
      3045 WT1      740      TIP3     H2       HT       0.417000        1.0080           0
      3046 WT1      741      TIP3     OH2      OT      -0.834000       15.9994           0
      3047 WT1      741      TIP3     H1       HT       0.417000        1.0080           0
      3048 WT1      741      TIP3     H2       HT       0.417000        1.0080           0
      3049 WT1      742      TIP3     OH2      OT      -0.834000       15.9994           0
      3050 WT1      742      TIP3     H1       HT       0.417000        1.0080           0
      3051 WT1      742      TIP3     H2       HT       0.417000        1.0080           0
      3052 WT1      743      TIP3     OH2      OT      -0.834000       15.9994           0
      3053 WT1      743      TIP3     H1       HT       0.417000        1.0080           0
      3054 WT1      743      TIP3     H2       HT       0.417000        1.0080           0
      3055 WT1      744      TIP3     OH2      OT      -0.834000       15.9994           0
      3056 WT1      744      TIP3     H1       HT       0.417000        1.0080           0
      3057 WT1      744      TIP3     H2       HT       0.417000        1.0080           0
      3058 WT1      745      TIP3     OH2      OT      -0.834000       15.9994           0
      3059 WT1      745      TIP3     H1       HT       0.417000        1.0080           0
      3060 WT1      745      TIP3     H2       HT       0.417000        1.0080           0
      3061 WT1      746      TIP3     OH2      OT      -0.834000       15.9994           0
      3062 WT1      746      TIP3     H1       HT       0.417000        1.0080           0
      3063 WT1      746      TIP3     H2       HT       0.417000        1.0080           0
      3064 WT1      747      TIP3     OH2      OT      -0.834000       15.9994           0
      3065 WT1      747      TIP3     H1       HT       0.417000        1.0080           0
      3066 WT1      747      TIP3     H2       HT       0.417000        1.0080           0
      3067 WT1      748      TIP3     OH2      OT      -0.834000       15.9994           0
      3068 WT1      748      TIP3     H1       HT       0.417000        1.0080           0
      3069 WT1      748      TIP3     H2       HT       0.417000        1.0080           0
      3070 WT1      749      TIP3     OH2      OT      -0.834000       15.9994           0
      3071 WT1      749      TIP3     H1       HT       0.417000        1.0080           0
      3072 WT1      749      TIP3     H2       HT       0.417000        1.0080           0
      3073 WT1      750      TIP3     OH2      OT      -0.834000       15.9994           0
      3074 WT1      750      TIP3     H1       HT       0.417000        1.0080           0
      3075 WT1      750      TIP3     H2       HT       0.417000        1.0080           0
      3076 WT1      751      TIP3     OH2      OT      -0.834000       15.9994           0
      3077 WT1      751      TIP3     H1       HT       0.417000        1.0080           0
      3078 WT1      751      TIP3     H2       HT       0.417000        1.0080           0
      3079 WT1      752      TIP3     OH2      OT      -0.834000       15.9994           0
      3080 WT1      752      TIP3     H1       HT       0.417000        1.0080           0
      3081 WT1      752      TIP3     H2       HT       0.417000        1.0080           0
      3082 WT1      753      TIP3     OH2      OT      -0.834000       15.9994           0
      3083 WT1      753      TIP3     H1       HT       0.417000        1.0080           0
      3084 WT1      753      TIP3     H2       HT       0.417000        1.0080           0
      3085 WT1      754      TIP3     OH2      OT      -0.834000       15.9994           0
      3086 WT1      754      TIP3     H1       HT       0.417000        1.0080           0
      3087 WT1      754      TIP3     H2       HT       0.417000        1.0080           0
      3088 WT1      755      TIP3     OH2      OT      -0.834000       15.9994           0
      3089 WT1      755      TIP3     H1       HT       0.417000        1.0080           0
      3090 WT1      755      TIP3     H2       HT       0.417000        1.0080           0
      3091 WT1      756      TIP3     OH2      OT      -0.834000       15.9994           0
      3092 WT1      756      TIP3     H1       HT       0.417000        1.0080           0
      3093 WT1      756      TIP3     H2       HT       0.417000        1.0080           0
      3094 WT1      757      TIP3     OH2      OT      -0.834000       15.9994           0
      3095 WT1      757      TIP3     H1       HT       0.417000        1.0080           0
      3096 WT1      757      TIP3     H2       HT       0.417000        1.0080           0
      3097 WT1      758      TIP3     OH2      OT      -0.834000       15.9994           0
      3098 WT1      758      TIP3     H1       HT       0.417000        1.0080           0
      3099 WT1      758      TIP3     H2       HT       0.417000        1.0080           0
      3100 WT1      759      TIP3     OH2      OT      -0.834000       15.9994           0
      3101 WT1      759      TIP3     H1       HT       0.417000        1.0080           0
      3102 WT1      759      TIP3     H2       HT       0.417000        1.0080           0
      3103 WT1      760      TIP3     OH2      OT      -0.834000       15.9994           0
      3104 WT1      760      TIP3     H1       HT       0.417000        1.0080           0
      3105 WT1      760      TIP3     H2       HT       0.417000        1.0080           0
      3106 WT1      761      TIP3     OH2      OT      -0.834000       15.9994           0
      3107 WT1      761      TIP3     H1       HT       0.417000        1.0080           0
      3108 WT1      761      TIP3     H2       HT       0.417000        1.0080           0
      3109 WT1      763      TIP3     OH2      OT      -0.834000       15.9994           0
      3110 WT1      763      TIP3     H1       HT       0.417000        1.0080           0
      3111 WT1      763      TIP3     H2       HT       0.417000        1.0080           0
      3112 WT1      764      TIP3     OH2      OT      -0.834000       15.9994           0
      3113 WT1      764      TIP3     H1       HT       0.417000        1.0080           0
      3114 WT1      764      TIP3     H2       HT       0.417000        1.0080           0
      3115 WT1      765      TIP3     OH2      OT      -0.834000       15.9994           0
      3116 WT1      765      TIP3     H1       HT       0.417000        1.0080           0
      3117 WT1      765      TIP3     H2       HT       0.417000        1.0080           0
      3118 WT1      766      TIP3     OH2      OT      -0.834000       15.9994           0
      3119 WT1      766      TIP3     H1       HT       0.417000        1.0080           0
      3120 WT1      766      TIP3     H2       HT       0.417000        1.0080           0
      3121 WT1      767      TIP3     OH2      OT      -0.834000       15.9994           0
      3122 WT1      767      TIP3     H1       HT       0.417000        1.0080           0
      3123 WT1      767      TIP3     H2       HT       0.417000        1.0080           0
      3124 WT1      768      TIP3     OH2      OT      -0.834000       15.9994           0
      3125 WT1      768      TIP3     H1       HT       0.417000        1.0080           0
      3126 WT1      768      TIP3     H2       HT       0.417000        1.0080           0
      3127 WT1      769      TIP3     OH2      OT      -0.834000       15.9994           0
      3128 WT1      769      TIP3     H1       HT       0.417000        1.0080           0
      3129 WT1      769      TIP3     H2       HT       0.417000        1.0080           0
      3130 WT1      770      TIP3     OH2      OT      -0.834000       15.9994           0
      3131 WT1      770      TIP3     H1       HT       0.417000        1.0080           0
      3132 WT1      770      TIP3     H2       HT       0.417000        1.0080           0
      3133 WT1      771      TIP3     OH2      OT      -0.834000       15.9994           0
      3134 WT1      771      TIP3     H1       HT       0.417000        1.0080           0
      3135 WT1      771      TIP3     H2       HT       0.417000        1.0080           0
      3136 WT1      772      TIP3     OH2      OT      -0.834000       15.9994           0
      3137 WT1      772      TIP3     H1       HT       0.417000        1.0080           0
      3138 WT1      772      TIP3     H2       HT       0.417000        1.0080           0
      3139 WT1      773      TIP3     OH2      OT      -0.834000       15.9994           0
      3140 WT1      773      TIP3     H1       HT       0.417000        1.0080           0
      3141 WT1      773      TIP3     H2       HT       0.417000        1.0080           0
      3142 WT1      774      TIP3     OH2      OT      -0.834000       15.9994           0
      3143 WT1      774      TIP3     H1       HT       0.417000        1.0080           0
      3144 WT1      774      TIP3     H2       HT       0.417000        1.0080           0
      3145 WT1      775      TIP3     OH2      OT      -0.834000       15.9994           0
      3146 WT1      775      TIP3     H1       HT       0.417000        1.0080           0
      3147 WT1      775      TIP3     H2       HT       0.417000        1.0080           0
      3148 WT1      776      TIP3     OH2      OT      -0.834000       15.9994           0
      3149 WT1      776      TIP3     H1       HT       0.417000        1.0080           0
      3150 WT1      776      TIP3     H2       HT       0.417000        1.0080           0
      3151 WT1      777      TIP3     OH2      OT      -0.834000       15.9994           0
      3152 WT1      777      TIP3     H1       HT       0.417000        1.0080           0
      3153 WT1      777      TIP3     H2       HT       0.417000        1.0080           0
      3154 WT1      778      TIP3     OH2      OT      -0.834000       15.9994           0
      3155 WT1      778      TIP3     H1       HT       0.417000        1.0080           0
      3156 WT1      778      TIP3     H2       HT       0.417000        1.0080           0
      3157 WT1      780      TIP3     OH2      OT      -0.834000       15.9994           0
      3158 WT1      780      TIP3     H1       HT       0.417000        1.0080           0
      3159 WT1      780      TIP3     H2       HT       0.417000        1.0080           0
      3160 WT1      781      TIP3     OH2      OT      -0.834000       15.9994           0
      3161 WT1      781      TIP3     H1       HT       0.417000        1.0080           0
      3162 WT1      781      TIP3     H2       HT       0.417000        1.0080           0
      3163 WT1      782      TIP3     OH2      OT      -0.834000       15.9994           0
      3164 WT1      782      TIP3     H1       HT       0.417000        1.0080           0
      3165 WT1      782      TIP3     H2       HT       0.417000        1.0080           0
      3166 WT1      783      TIP3     OH2      OT      -0.834000       15.9994           0
      3167 WT1      783      TIP3     H1       HT       0.417000        1.0080           0
      3168 WT1      783      TIP3     H2       HT       0.417000        1.0080           0
      3169 WT1      784      TIP3     OH2      OT      -0.834000       15.9994           0
      3170 WT1      784      TIP3     H1       HT       0.417000        1.0080           0
      3171 WT1      784      TIP3     H2       HT       0.417000        1.0080           0
      3172 WT1      785      TIP3     OH2      OT      -0.834000       15.9994           0
      3173 WT1      785      TIP3     H1       HT       0.417000        1.0080           0
      3174 WT1      785      TIP3     H2       HT       0.417000        1.0080           0
      3175 WT1      786      TIP3     OH2      OT      -0.834000       15.9994           0
      3176 WT1      786      TIP3     H1       HT       0.417000        1.0080           0
      3177 WT1      786      TIP3     H2       HT       0.417000        1.0080           0
      3178 WT1      787      TIP3     OH2      OT      -0.834000       15.9994           0
      3179 WT1      787      TIP3     H1       HT       0.417000        1.0080           0
      3180 WT1      787      TIP3     H2       HT       0.417000        1.0080           0
      3181 WT1      788      TIP3     OH2      OT      -0.834000       15.9994           0
      3182 WT1      788      TIP3     H1       HT       0.417000        1.0080           0
      3183 WT1      788      TIP3     H2       HT       0.417000        1.0080           0
      3184 WT1      789      TIP3     OH2      OT      -0.834000       15.9994           0
      3185 WT1      789      TIP3     H1       HT       0.417000        1.0080           0
      3186 WT1      789      TIP3     H2       HT       0.417000        1.0080           0
      3187 WT1      790      TIP3     OH2      OT      -0.834000       15.9994           0
      3188 WT1      790      TIP3     H1       HT       0.417000        1.0080           0
      3189 WT1      790      TIP3     H2       HT       0.417000        1.0080           0
      3190 WT1      791      TIP3     OH2      OT      -0.834000       15.9994           0
      3191 WT1      791      TIP3     H1       HT       0.417000        1.0080           0
      3192 WT1      791      TIP3     H2       HT       0.417000        1.0080           0
      3193 WT1      792      TIP3     OH2      OT      -0.834000       15.9994           0
      3194 WT1      792      TIP3     H1       HT       0.417000        1.0080           0
      3195 WT1      792      TIP3     H2       HT       0.417000        1.0080           0
      3196 WT1      793      TIP3     OH2      OT      -0.834000       15.9994           0
      3197 WT1      793      TIP3     H1       HT       0.417000        1.0080           0
      3198 WT1      793      TIP3     H2       HT       0.417000        1.0080           0
      3199 WT1      794      TIP3     OH2      OT      -0.834000       15.9994           0
      3200 WT1      794      TIP3     H1       HT       0.417000        1.0080           0
      3201 WT1      794      TIP3     H2       HT       0.417000        1.0080           0
      3202 WT1      795      TIP3     OH2      OT      -0.834000       15.9994           0
      3203 WT1      795      TIP3     H1       HT       0.417000        1.0080           0
      3204 WT1      795      TIP3     H2       HT       0.417000        1.0080           0
      3205 WT1      796      TIP3     OH2      OT      -0.834000       15.9994           0
      3206 WT1      796      TIP3     H1       HT       0.417000        1.0080           0
      3207 WT1      796      TIP3     H2       HT       0.417000        1.0080           0
      3208 WT1      797      TIP3     OH2      OT      -0.834000       15.9994           0
      3209 WT1      797      TIP3     H1       HT       0.417000        1.0080           0
      3210 WT1      797      TIP3     H2       HT       0.417000        1.0080           0
      3211 WT1      798      TIP3     OH2      OT      -0.834000       15.9994           0
      3212 WT1      798      TIP3     H1       HT       0.417000        1.0080           0
      3213 WT1      798      TIP3     H2       HT       0.417000        1.0080           0
      3214 WT1      799      TIP3     OH2      OT      -0.834000       15.9994           0
      3215 WT1      799      TIP3     H1       HT       0.417000        1.0080           0
      3216 WT1      799      TIP3     H2       HT       0.417000        1.0080           0
      3217 WT1      800      TIP3     OH2      OT      -0.834000       15.9994           0
      3218 WT1      800      TIP3     H1       HT       0.417000        1.0080           0
      3219 WT1      800      TIP3     H2       HT       0.417000        1.0080           0
      3220 WT1      801      TIP3     OH2      OT      -0.834000       15.9994           0
      3221 WT1      801      TIP3     H1       HT       0.417000        1.0080           0
      3222 WT1      801      TIP3     H2       HT       0.417000        1.0080           0
      3223 WT1      802      TIP3     OH2      OT      -0.834000       15.9994           0
      3224 WT1      802      TIP3     H1       HT       0.417000        1.0080           0
      3225 WT1      802      TIP3     H2       HT       0.417000        1.0080           0
      3226 WT1      803      TIP3     OH2      OT      -0.834000       15.9994           0
      3227 WT1      803      TIP3     H1       HT       0.417000        1.0080           0
      3228 WT1      803      TIP3     H2       HT       0.417000        1.0080           0
      3229 WT1      804      TIP3     OH2      OT      -0.834000       15.9994           0
      3230 WT1      804      TIP3     H1       HT       0.417000        1.0080           0
      3231 WT1      804      TIP3     H2       HT       0.417000        1.0080           0
      3232 WT1      805      TIP3     OH2      OT      -0.834000       15.9994           0
      3233 WT1      805      TIP3     H1       HT       0.417000        1.0080           0
      3234 WT1      805      TIP3     H2       HT       0.417000        1.0080           0
      3235 WT1      806      TIP3     OH2      OT      -0.834000       15.9994           0
      3236 WT1      806      TIP3     H1       HT       0.417000        1.0080           0
      3237 WT1      806      TIP3     H2       HT       0.417000        1.0080           0
      3238 WT1      807      TIP3     OH2      OT      -0.834000       15.9994           0
      3239 WT1      807      TIP3     H1       HT       0.417000        1.0080           0
      3240 WT1      807      TIP3     H2       HT       0.417000        1.0080           0
      3241 WT1      808      TIP3     OH2      OT      -0.834000       15.9994           0
      3242 WT1      808      TIP3     H1       HT       0.417000        1.0080           0
      3243 WT1      808      TIP3     H2       HT       0.417000        1.0080           0
      3244 WT1      809      TIP3     OH2      OT      -0.834000       15.9994           0
      3245 WT1      809      TIP3     H1       HT       0.417000        1.0080           0
      3246 WT1      809      TIP3     H2       HT       0.417000        1.0080           0
      3247 WT1      810      TIP3     OH2      OT      -0.834000       15.9994           0
      3248 WT1      810      TIP3     H1       HT       0.417000        1.0080           0
      3249 WT1      810      TIP3     H2       HT       0.417000        1.0080           0
      3250 WT1      811      TIP3     OH2      OT      -0.834000       15.9994           0
      3251 WT1      811      TIP3     H1       HT       0.417000        1.0080           0
      3252 WT1      811      TIP3     H2       HT       0.417000        1.0080           0
      3253 WT1      812      TIP3     OH2      OT      -0.834000       15.9994           0
      3254 WT1      812      TIP3     H1       HT       0.417000        1.0080           0
      3255 WT1      812      TIP3     H2       HT       0.417000        1.0080           0
      3256 WT1      813      TIP3     OH2      OT      -0.834000       15.9994           0
      3257 WT1      813      TIP3     H1       HT       0.417000        1.0080           0
      3258 WT1      813      TIP3     H2       HT       0.417000        1.0080           0
      3259 WT1      814      TIP3     OH2      OT      -0.834000       15.9994           0
      3260 WT1      814      TIP3     H1       HT       0.417000        1.0080           0
      3261 WT1      814      TIP3     H2       HT       0.417000        1.0080           0
      3262 WT1      815      TIP3     OH2      OT      -0.834000       15.9994           0
      3263 WT1      815      TIP3     H1       HT       0.417000        1.0080           0
      3264 WT1      815      TIP3     H2       HT       0.417000        1.0080           0
      3265 WT1      816      TIP3     OH2      OT      -0.834000       15.9994           0
      3266 WT1      816      TIP3     H1       HT       0.417000        1.0080           0
      3267 WT1      816      TIP3     H2       HT       0.417000        1.0080           0
      3268 WT1      817      TIP3     OH2      OT      -0.834000       15.9994           0
      3269 WT1      817      TIP3     H1       HT       0.417000        1.0080           0
      3270 WT1      817      TIP3     H2       HT       0.417000        1.0080           0
      3271 WT1      818      TIP3     OH2      OT      -0.834000       15.9994           0
      3272 WT1      818      TIP3     H1       HT       0.417000        1.0080           0
      3273 WT1      818      TIP3     H2       HT       0.417000        1.0080           0
      3274 WT1      819      TIP3     OH2      OT      -0.834000       15.9994           0
      3275 WT1      819      TIP3     H1       HT       0.417000        1.0080           0
      3276 WT1      819      TIP3     H2       HT       0.417000        1.0080           0
      3277 WT1      820      TIP3     OH2      OT      -0.834000       15.9994           0
      3278 WT1      820      TIP3     H1       HT       0.417000        1.0080           0
      3279 WT1      820      TIP3     H2       HT       0.417000        1.0080           0
      3280 WT1      821      TIP3     OH2      OT      -0.834000       15.9994           0
      3281 WT1      821      TIP3     H1       HT       0.417000        1.0080           0
      3282 WT1      821      TIP3     H2       HT       0.417000        1.0080           0
      3283 WT1      822      TIP3     OH2      OT      -0.834000       15.9994           0
      3284 WT1      822      TIP3     H1       HT       0.417000        1.0080           0
      3285 WT1      822      TIP3     H2       HT       0.417000        1.0080           0
      3286 WT1      823      TIP3     OH2      OT      -0.834000       15.9994           0
      3287 WT1      823      TIP3     H1       HT       0.417000        1.0080           0
      3288 WT1      823      TIP3     H2       HT       0.417000        1.0080           0
      3289 WT1      824      TIP3     OH2      OT      -0.834000       15.9994           0
      3290 WT1      824      TIP3     H1       HT       0.417000        1.0080           0
      3291 WT1      824      TIP3     H2       HT       0.417000        1.0080           0
      3292 WT1      825      TIP3     OH2      OT      -0.834000       15.9994           0
      3293 WT1      825      TIP3     H1       HT       0.417000        1.0080           0
      3294 WT1      825      TIP3     H2       HT       0.417000        1.0080           0
      3295 WT1      826      TIP3     OH2      OT      -0.834000       15.9994           0
      3296 WT1      826      TIP3     H1       HT       0.417000        1.0080           0
      3297 WT1      826      TIP3     H2       HT       0.417000        1.0080           0
      3298 WT1      827      TIP3     OH2      OT      -0.834000       15.9994           0
      3299 WT1      827      TIP3     H1       HT       0.417000        1.0080           0
      3300 WT1      827      TIP3     H2       HT       0.417000        1.0080           0
      3301 WT1      828      TIP3     OH2      OT      -0.834000       15.9994           0
      3302 WT1      828      TIP3     H1       HT       0.417000        1.0080           0
      3303 WT1      828      TIP3     H2       HT       0.417000        1.0080           0
      3304 WT1      829      TIP3     OH2      OT      -0.834000       15.9994           0
      3305 WT1      829      TIP3     H1       HT       0.417000        1.0080           0
      3306 WT1      829      TIP3     H2       HT       0.417000        1.0080           0
      3307 WT1      830      TIP3     OH2      OT      -0.834000       15.9994           0
      3308 WT1      830      TIP3     H1       HT       0.417000        1.0080           0
      3309 WT1      830      TIP3     H2       HT       0.417000        1.0080           0
      3310 WT1      831      TIP3     OH2      OT      -0.834000       15.9994           0
      3311 WT1      831      TIP3     H1       HT       0.417000        1.0080           0
      3312 WT1      831      TIP3     H2       HT       0.417000        1.0080           0
      3313 WT1      832      TIP3     OH2      OT      -0.834000       15.9994           0
      3314 WT1      832      TIP3     H1       HT       0.417000        1.0080           0
      3315 WT1      832      TIP3     H2       HT       0.417000        1.0080           0
      3316 WT1      833      TIP3     OH2      OT      -0.834000       15.9994           0
      3317 WT1      833      TIP3     H1       HT       0.417000        1.0080           0
      3318 WT1      833      TIP3     H2       HT       0.417000        1.0080           0
      3319 WT1      834      TIP3     OH2      OT      -0.834000       15.9994           0
      3320 WT1      834      TIP3     H1       HT       0.417000        1.0080           0
      3321 WT1      834      TIP3     H2       HT       0.417000        1.0080           0
      3322 WT1      835      TIP3     OH2      OT      -0.834000       15.9994           0
      3323 WT1      835      TIP3     H1       HT       0.417000        1.0080           0
      3324 WT1      835      TIP3     H2       HT       0.417000        1.0080           0
      3325 WT1      836      TIP3     OH2      OT      -0.834000       15.9994           0
      3326 WT1      836      TIP3     H1       HT       0.417000        1.0080           0
      3327 WT1      836      TIP3     H2       HT       0.417000        1.0080           0
      3328 WT1      837      TIP3     OH2      OT      -0.834000       15.9994           0
      3329 WT1      837      TIP3     H1       HT       0.417000        1.0080           0
      3330 WT1      837      TIP3     H2       HT       0.417000        1.0080           0
      3331 WT1      838      TIP3     OH2      OT      -0.834000       15.9994           0
      3332 WT1      838      TIP3     H1       HT       0.417000        1.0080           0
      3333 WT1      838      TIP3     H2       HT       0.417000        1.0080           0
      3334 WT1      839      TIP3     OH2      OT      -0.834000       15.9994           0
      3335 WT1      839      TIP3     H1       HT       0.417000        1.0080           0
      3336 WT1      839      TIP3     H2       HT       0.417000        1.0080           0
      3337 WT1      840      TIP3     OH2      OT      -0.834000       15.9994           0
      3338 WT1      840      TIP3     H1       HT       0.417000        1.0080           0
      3339 WT1      840      TIP3     H2       HT       0.417000        1.0080           0
      3340 WT1      841      TIP3     OH2      OT      -0.834000       15.9994           0
      3341 WT1      841      TIP3     H1       HT       0.417000        1.0080           0
      3342 WT1      841      TIP3     H2       HT       0.417000        1.0080           0
      3343 WT1      842      TIP3     OH2      OT      -0.834000       15.9994           0
      3344 WT1      842      TIP3     H1       HT       0.417000        1.0080           0
      3345 WT1      842      TIP3     H2       HT       0.417000        1.0080           0
      3346 WT1      843      TIP3     OH2      OT      -0.834000       15.9994           0
      3347 WT1      843      TIP3     H1       HT       0.417000        1.0080           0
      3348 WT1      843      TIP3     H2       HT       0.417000        1.0080           0
      3349 WT1      844      TIP3     OH2      OT      -0.834000       15.9994           0
      3350 WT1      844      TIP3     H1       HT       0.417000        1.0080           0
      3351 WT1      844      TIP3     H2       HT       0.417000        1.0080           0
      3352 WT1      845      TIP3     OH2      OT      -0.834000       15.9994           0
      3353 WT1      845      TIP3     H1       HT       0.417000        1.0080           0
      3354 WT1      845      TIP3     H2       HT       0.417000        1.0080           0
      3355 WT1      846      TIP3     OH2      OT      -0.834000       15.9994           0
      3356 WT1      846      TIP3     H1       HT       0.417000        1.0080           0
      3357 WT1      846      TIP3     H2       HT       0.417000        1.0080           0
      3358 WT1      847      TIP3     OH2      OT      -0.834000       15.9994           0
      3359 WT1      847      TIP3     H1       HT       0.417000        1.0080           0
      3360 WT1      847      TIP3     H2       HT       0.417000        1.0080           0
      3361 WT1      848      TIP3     OH2      OT      -0.834000       15.9994           0
      3362 WT1      848      TIP3     H1       HT       0.417000        1.0080           0
      3363 WT1      848      TIP3     H2       HT       0.417000        1.0080           0
      3364 WT1      849      TIP3     OH2      OT      -0.834000       15.9994           0
      3365 WT1      849      TIP3     H1       HT       0.417000        1.0080           0
      3366 WT1      849      TIP3     H2       HT       0.417000        1.0080           0
      3367 WT1      850      TIP3     OH2      OT      -0.834000       15.9994           0
      3368 WT1      850      TIP3     H1       HT       0.417000        1.0080           0
      3369 WT1      850      TIP3     H2       HT       0.417000        1.0080           0
      3370 WT1      851      TIP3     OH2      OT      -0.834000       15.9994           0
      3371 WT1      851      TIP3     H1       HT       0.417000        1.0080           0
      3372 WT1      851      TIP3     H2       HT       0.417000        1.0080           0
      3373 WT1      852      TIP3     OH2      OT      -0.834000       15.9994           0
      3374 WT1      852      TIP3     H1       HT       0.417000        1.0080           0
      3375 WT1      852      TIP3     H2       HT       0.417000        1.0080           0
      3376 WT1      853      TIP3     OH2      OT      -0.834000       15.9994           0
      3377 WT1      853      TIP3     H1       HT       0.417000        1.0080           0
      3378 WT1      853      TIP3     H2       HT       0.417000        1.0080           0
      3379 WT1      854      TIP3     OH2      OT      -0.834000       15.9994           0
      3380 WT1      854      TIP3     H1       HT       0.417000        1.0080           0
      3381 WT1      854      TIP3     H2       HT       0.417000        1.0080           0
      3382 WT1      855      TIP3     OH2      OT      -0.834000       15.9994           0
      3383 WT1      855      TIP3     H1       HT       0.417000        1.0080           0
      3384 WT1      855      TIP3     H2       HT       0.417000        1.0080           0
      3385 WT1      856      TIP3     OH2      OT      -0.834000       15.9994           0
      3386 WT1      856      TIP3     H1       HT       0.417000        1.0080           0
      3387 WT1      856      TIP3     H2       HT       0.417000        1.0080           0
      3388 WT1      857      TIP3     OH2      OT      -0.834000       15.9994           0
      3389 WT1      857      TIP3     H1       HT       0.417000        1.0080           0
      3390 WT1      857      TIP3     H2       HT       0.417000        1.0080           0
      3391 WT1      858      TIP3     OH2      OT      -0.834000       15.9994           0
      3392 WT1      858      TIP3     H1       HT       0.417000        1.0080           0
      3393 WT1      858      TIP3     H2       HT       0.417000        1.0080           0
      3394 WT1      859      TIP3     OH2      OT      -0.834000       15.9994           0
      3395 WT1      859      TIP3     H1       HT       0.417000        1.0080           0
      3396 WT1      859      TIP3     H2       HT       0.417000        1.0080           0
      3397 WT1      860      TIP3     OH2      OT      -0.834000       15.9994           0
      3398 WT1      860      TIP3     H1       HT       0.417000        1.0080           0
      3399 WT1      860      TIP3     H2       HT       0.417000        1.0080           0
      3400 WT1      861      TIP3     OH2      OT      -0.834000       15.9994           0
      3401 WT1      861      TIP3     H1       HT       0.417000        1.0080           0
      3402 WT1      861      TIP3     H2       HT       0.417000        1.0080           0
      3403 WT1      862      TIP3     OH2      OT      -0.834000       15.9994           0
      3404 WT1      862      TIP3     H1       HT       0.417000        1.0080           0
      3405 WT1      862      TIP3     H2       HT       0.417000        1.0080           0
      3406 WT1      863      TIP3     OH2      OT      -0.834000       15.9994           0
      3407 WT1      863      TIP3     H1       HT       0.417000        1.0080           0
      3408 WT1      863      TIP3     H2       HT       0.417000        1.0080           0
      3409 WT1      864      TIP3     OH2      OT      -0.834000       15.9994           0
      3410 WT1      864      TIP3     H1       HT       0.417000        1.0080           0
      3411 WT1      864      TIP3     H2       HT       0.417000        1.0080           0
      3412 WT1      865      TIP3     OH2      OT      -0.834000       15.9994           0
      3413 WT1      865      TIP3     H1       HT       0.417000        1.0080           0
      3414 WT1      865      TIP3     H2       HT       0.417000        1.0080           0
      3415 WT1      866      TIP3     OH2      OT      -0.834000       15.9994           0
      3416 WT1      866      TIP3     H1       HT       0.417000        1.0080           0
      3417 WT1      866      TIP3     H2       HT       0.417000        1.0080           0
      3418 WT1      867      TIP3     OH2      OT      -0.834000       15.9994           0
      3419 WT1      867      TIP3     H1       HT       0.417000        1.0080           0
      3420 WT1      867      TIP3     H2       HT       0.417000        1.0080           0
      3421 WT1      869      TIP3     OH2      OT      -0.834000       15.9994           0
      3422 WT1      869      TIP3     H1       HT       0.417000        1.0080           0
      3423 WT1      869      TIP3     H2       HT       0.417000        1.0080           0
      3424 WT1      870      TIP3     OH2      OT      -0.834000       15.9994           0
      3425 WT1      870      TIP3     H1       HT       0.417000        1.0080           0
      3426 WT1      870      TIP3     H2       HT       0.417000        1.0080           0
      3427 WT1      871      TIP3     OH2      OT      -0.834000       15.9994           0
      3428 WT1      871      TIP3     H1       HT       0.417000        1.0080           0
      3429 WT1      871      TIP3     H2       HT       0.417000        1.0080           0
      3430 WT1      872      TIP3     OH2      OT      -0.834000       15.9994           0
      3431 WT1      872      TIP3     H1       HT       0.417000        1.0080           0
      3432 WT1      872      TIP3     H2       HT       0.417000        1.0080           0
      3433 WT1      873      TIP3     OH2      OT      -0.834000       15.9994           0
      3434 WT1      873      TIP3     H1       HT       0.417000        1.0080           0
      3435 WT1      873      TIP3     H2       HT       0.417000        1.0080           0
      3436 WT1      874      TIP3     OH2      OT      -0.834000       15.9994           0
      3437 WT1      874      TIP3     H1       HT       0.417000        1.0080           0
      3438 WT1      874      TIP3     H2       HT       0.417000        1.0080           0
      3439 WT1      875      TIP3     OH2      OT      -0.834000       15.9994           0
      3440 WT1      875      TIP3     H1       HT       0.417000        1.0080           0
      3441 WT1      875      TIP3     H2       HT       0.417000        1.0080           0
      3442 WT1      876      TIP3     OH2      OT      -0.834000       15.9994           0
      3443 WT1      876      TIP3     H1       HT       0.417000        1.0080           0
      3444 WT1      876      TIP3     H2       HT       0.417000        1.0080           0
      3445 WT1      877      TIP3     OH2      OT      -0.834000       15.9994           0
      3446 WT1      877      TIP3     H1       HT       0.417000        1.0080           0
      3447 WT1      877      TIP3     H2       HT       0.417000        1.0080           0
      3448 WT1      878      TIP3     OH2      OT      -0.834000       15.9994           0
      3449 WT1      878      TIP3     H1       HT       0.417000        1.0080           0
      3450 WT1      878      TIP3     H2       HT       0.417000        1.0080           0
      3451 WT1      880      TIP3     OH2      OT      -0.834000       15.9994           0
      3452 WT1      880      TIP3     H1       HT       0.417000        1.0080           0
      3453 WT1      880      TIP3     H2       HT       0.417000        1.0080           0
      3454 WT1      881      TIP3     OH2      OT      -0.834000       15.9994           0
      3455 WT1      881      TIP3     H1       HT       0.417000        1.0080           0
      3456 WT1      881      TIP3     H2       HT       0.417000        1.0080           0
      3457 WT1      883      TIP3     OH2      OT      -0.834000       15.9994           0
      3458 WT1      883      TIP3     H1       HT       0.417000        1.0080           0
      3459 WT1      883      TIP3     H2       HT       0.417000        1.0080           0
      3460 WT1      884      TIP3     OH2      OT      -0.834000       15.9994           0
      3461 WT1      884      TIP3     H1       HT       0.417000        1.0080           0
      3462 WT1      884      TIP3     H2       HT       0.417000        1.0080           0
      3463 WT1      885      TIP3     OH2      OT      -0.834000       15.9994           0
      3464 WT1      885      TIP3     H1       HT       0.417000        1.0080           0
      3465 WT1      885      TIP3     H2       HT       0.417000        1.0080           0
      3466 WT1      886      TIP3     OH2      OT      -0.834000       15.9994           0
      3467 WT1      886      TIP3     H1       HT       0.417000        1.0080           0
      3468 WT1      886      TIP3     H2       HT       0.417000        1.0080           0
      3469 WT1      887      TIP3     OH2      OT      -0.834000       15.9994           0
      3470 WT1      887      TIP3     H1       HT       0.417000        1.0080           0
      3471 WT1      887      TIP3     H2       HT       0.417000        1.0080           0
      3472 WT1      889      TIP3     OH2      OT      -0.834000       15.9994           0
      3473 WT1      889      TIP3     H1       HT       0.417000        1.0080           0
      3474 WT1      889      TIP3     H2       HT       0.417000        1.0080           0
      3475 WT1      890      TIP3     OH2      OT      -0.834000       15.9994           0
      3476 WT1      890      TIP3     H1       HT       0.417000        1.0080           0
      3477 WT1      890      TIP3     H2       HT       0.417000        1.0080           0
      3478 WT1      891      TIP3     OH2      OT      -0.834000       15.9994           0
      3479 WT1      891      TIP3     H1       HT       0.417000        1.0080           0
      3480 WT1      891      TIP3     H2       HT       0.417000        1.0080           0
      3481 WT1      893      TIP3     OH2      OT      -0.834000       15.9994           0
      3482 WT1      893      TIP3     H1       HT       0.417000        1.0080           0
      3483 WT1      893      TIP3     H2       HT       0.417000        1.0080           0
      3484 WT1      894      TIP3     OH2      OT      -0.834000       15.9994           0
      3485 WT1      894      TIP3     H1       HT       0.417000        1.0080           0
      3486 WT1      894      TIP3     H2       HT       0.417000        1.0080           0
      3487 WT1      895      TIP3     OH2      OT      -0.834000       15.9994           0
      3488 WT1      895      TIP3     H1       HT       0.417000        1.0080           0
      3489 WT1      895      TIP3     H2       HT       0.417000        1.0080           0
      3490 WT1      896      TIP3     OH2      OT      -0.834000       15.9994           0
      3491 WT1      896      TIP3     H1       HT       0.417000        1.0080           0
      3492 WT1      896      TIP3     H2       HT       0.417000        1.0080           0
      3493 WT1      897      TIP3     OH2      OT      -0.834000       15.9994           0
      3494 WT1      897      TIP3     H1       HT       0.417000        1.0080           0
      3495 WT1      897      TIP3     H2       HT       0.417000        1.0080           0
      3496 WT1      898      TIP3     OH2      OT      -0.834000       15.9994           0
      3497 WT1      898      TIP3     H1       HT       0.417000        1.0080           0
      3498 WT1      898      TIP3     H2       HT       0.417000        1.0080           0
      3499 WT1      899      TIP3     OH2      OT      -0.834000       15.9994           0
      3500 WT1      899      TIP3     H1       HT       0.417000        1.0080           0
      3501 WT1      899      TIP3     H2       HT       0.417000        1.0080           0
      3502 WT1      900      TIP3     OH2      OT      -0.834000       15.9994           0
      3503 WT1      900      TIP3     H1       HT       0.417000        1.0080           0
      3504 WT1      900      TIP3     H2       HT       0.417000        1.0080           0
      3505 WT1      901      TIP3     OH2      OT      -0.834000       15.9994           0
      3506 WT1      901      TIP3     H1       HT       0.417000        1.0080           0
      3507 WT1      901      TIP3     H2       HT       0.417000        1.0080           0
      3508 WT1      902      TIP3     OH2      OT      -0.834000       15.9994           0
      3509 WT1      902      TIP3     H1       HT       0.417000        1.0080           0
      3510 WT1      902      TIP3     H2       HT       0.417000        1.0080           0
      3511 WT1      903      TIP3     OH2      OT      -0.834000       15.9994           0
      3512 WT1      903      TIP3     H1       HT       0.417000        1.0080           0
      3513 WT1      903      TIP3     H2       HT       0.417000        1.0080           0
      3514 WT1      904      TIP3     OH2      OT      -0.834000       15.9994           0
      3515 WT1      904      TIP3     H1       HT       0.417000        1.0080           0
      3516 WT1      904      TIP3     H2       HT       0.417000        1.0080           0
      3517 WT1      905      TIP3     OH2      OT      -0.834000       15.9994           0
      3518 WT1      905      TIP3     H1       HT       0.417000        1.0080           0
      3519 WT1      905      TIP3     H2       HT       0.417000        1.0080           0
      3520 WT1      906      TIP3     OH2      OT      -0.834000       15.9994           0
      3521 WT1      906      TIP3     H1       HT       0.417000        1.0080           0
      3522 WT1      906      TIP3     H2       HT       0.417000        1.0080           0
      3523 WT1      907      TIP3     OH2      OT      -0.834000       15.9994           0
      3524 WT1      907      TIP3     H1       HT       0.417000        1.0080           0
      3525 WT1      907      TIP3     H2       HT       0.417000        1.0080           0
      3526 WT1      908      TIP3     OH2      OT      -0.834000       15.9994           0
      3527 WT1      908      TIP3     H1       HT       0.417000        1.0080           0
      3528 WT1      908      TIP3     H2       HT       0.417000        1.0080           0
      3529 WT1      909      TIP3     OH2      OT      -0.834000       15.9994           0
      3530 WT1      909      TIP3     H1       HT       0.417000        1.0080           0
      3531 WT1      909      TIP3     H2       HT       0.417000        1.0080           0
      3532 WT1      910      TIP3     OH2      OT      -0.834000       15.9994           0
      3533 WT1      910      TIP3     H1       HT       0.417000        1.0080           0
      3534 WT1      910      TIP3     H2       HT       0.417000        1.0080           0
      3535 WT1      911      TIP3     OH2      OT      -0.834000       15.9994           0
      3536 WT1      911      TIP3     H1       HT       0.417000        1.0080           0
      3537 WT1      911      TIP3     H2       HT       0.417000        1.0080           0
      3538 WT1      912      TIP3     OH2      OT      -0.834000       15.9994           0
      3539 WT1      912      TIP3     H1       HT       0.417000        1.0080           0
      3540 WT1      912      TIP3     H2       HT       0.417000        1.0080           0
      3541 WT1      913      TIP3     OH2      OT      -0.834000       15.9994           0
      3542 WT1      913      TIP3     H1       HT       0.417000        1.0080           0
      3543 WT1      913      TIP3     H2       HT       0.417000        1.0080           0
      3544 WT1      914      TIP3     OH2      OT      -0.834000       15.9994           0
      3545 WT1      914      TIP3     H1       HT       0.417000        1.0080           0
      3546 WT1      914      TIP3     H2       HT       0.417000        1.0080           0
      3547 WT1      915      TIP3     OH2      OT      -0.834000       15.9994           0
      3548 WT1      915      TIP3     H1       HT       0.417000        1.0080           0
      3549 WT1      915      TIP3     H2       HT       0.417000        1.0080           0
      3550 WT1      916      TIP3     OH2      OT      -0.834000       15.9994           0
      3551 WT1      916      TIP3     H1       HT       0.417000        1.0080           0
      3552 WT1      916      TIP3     H2       HT       0.417000        1.0080           0
      3553 WT1      917      TIP3     OH2      OT      -0.834000       15.9994           0
      3554 WT1      917      TIP3     H1       HT       0.417000        1.0080           0
      3555 WT1      917      TIP3     H2       HT       0.417000        1.0080           0
      3556 WT1      918      TIP3     OH2      OT      -0.834000       15.9994           0
      3557 WT1      918      TIP3     H1       HT       0.417000        1.0080           0
      3558 WT1      918      TIP3     H2       HT       0.417000        1.0080           0
      3559 WT1      919      TIP3     OH2      OT      -0.834000       15.9994           0
      3560 WT1      919      TIP3     H1       HT       0.417000        1.0080           0
      3561 WT1      919      TIP3     H2       HT       0.417000        1.0080           0
      3562 WT1      920      TIP3     OH2      OT      -0.834000       15.9994           0
      3563 WT1      920      TIP3     H1       HT       0.417000        1.0080           0
      3564 WT1      920      TIP3     H2       HT       0.417000        1.0080           0
      3565 WT1      921      TIP3     OH2      OT      -0.834000       15.9994           0
      3566 WT1      921      TIP3     H1       HT       0.417000        1.0080           0
      3567 WT1      921      TIP3     H2       HT       0.417000        1.0080           0
      3568 WT1      922      TIP3     OH2      OT      -0.834000       15.9994           0
      3569 WT1      922      TIP3     H1       HT       0.417000        1.0080           0
      3570 WT1      922      TIP3     H2       HT       0.417000        1.0080           0
      3571 WT1      923      TIP3     OH2      OT      -0.834000       15.9994           0
      3572 WT1      923      TIP3     H1       HT       0.417000        1.0080           0
      3573 WT1      923      TIP3     H2       HT       0.417000        1.0080           0
      3574 WT1      924      TIP3     OH2      OT      -0.834000       15.9994           0
      3575 WT1      924      TIP3     H1       HT       0.417000        1.0080           0
      3576 WT1      924      TIP3     H2       HT       0.417000        1.0080           0
      3577 WT1      925      TIP3     OH2      OT      -0.834000       15.9994           0
      3578 WT1      925      TIP3     H1       HT       0.417000        1.0080           0
      3579 WT1      925      TIP3     H2       HT       0.417000        1.0080           0
      3580 WT1      926      TIP3     OH2      OT      -0.834000       15.9994           0
      3581 WT1      926      TIP3     H1       HT       0.417000        1.0080           0
      3582 WT1      926      TIP3     H2       HT       0.417000        1.0080           0
      3583 WT1      927      TIP3     OH2      OT      -0.834000       15.9994           0
      3584 WT1      927      TIP3     H1       HT       0.417000        1.0080           0
      3585 WT1      927      TIP3     H2       HT       0.417000        1.0080           0
      3586 WT1      928      TIP3     OH2      OT      -0.834000       15.9994           0
      3587 WT1      928      TIP3     H1       HT       0.417000        1.0080           0
      3588 WT1      928      TIP3     H2       HT       0.417000        1.0080           0
      3589 WT1      929      TIP3     OH2      OT      -0.834000       15.9994           0
      3590 WT1      929      TIP3     H1       HT       0.417000        1.0080           0
      3591 WT1      929      TIP3     H2       HT       0.417000        1.0080           0
      3592 WT1      930      TIP3     OH2      OT      -0.834000       15.9994           0
      3593 WT1      930      TIP3     H1       HT       0.417000        1.0080           0
      3594 WT1      930      TIP3     H2       HT       0.417000        1.0080           0
      3595 WT1      931      TIP3     OH2      OT      -0.834000       15.9994           0
      3596 WT1      931      TIP3     H1       HT       0.417000        1.0080           0
      3597 WT1      931      TIP3     H2       HT       0.417000        1.0080           0
      3598 WT1      932      TIP3     OH2      OT      -0.834000       15.9994           0
      3599 WT1      932      TIP3     H1       HT       0.417000        1.0080           0
      3600 WT1      932      TIP3     H2       HT       0.417000        1.0080           0
      3601 WT1      933      TIP3     OH2      OT      -0.834000       15.9994           0
      3602 WT1      933      TIP3     H1       HT       0.417000        1.0080           0
      3603 WT1      933      TIP3     H2       HT       0.417000        1.0080           0
      3604 WT1      934      TIP3     OH2      OT      -0.834000       15.9994           0
      3605 WT1      934      TIP3     H1       HT       0.417000        1.0080           0
      3606 WT1      934      TIP3     H2       HT       0.417000        1.0080           0
      3607 WT1      935      TIP3     OH2      OT      -0.834000       15.9994           0
      3608 WT1      935      TIP3     H1       HT       0.417000        1.0080           0
      3609 WT1      935      TIP3     H2       HT       0.417000        1.0080           0
      3610 WT1      936      TIP3     OH2      OT      -0.834000       15.9994           0
      3611 WT1      936      TIP3     H1       HT       0.417000        1.0080           0
      3612 WT1      936      TIP3     H2       HT       0.417000        1.0080           0
      3613 WT1      937      TIP3     OH2      OT      -0.834000       15.9994           0
      3614 WT1      937      TIP3     H1       HT       0.417000        1.0080           0
      3615 WT1      937      TIP3     H2       HT       0.417000        1.0080           0
      3616 WT1      938      TIP3     OH2      OT      -0.834000       15.9994           0
      3617 WT1      938      TIP3     H1       HT       0.417000        1.0080           0
      3618 WT1      938      TIP3     H2       HT       0.417000        1.0080           0
      3619 WT1      939      TIP3     OH2      OT      -0.834000       15.9994           0
      3620 WT1      939      TIP3     H1       HT       0.417000        1.0080           0
      3621 WT1      939      TIP3     H2       HT       0.417000        1.0080           0
      3622 WT1      940      TIP3     OH2      OT      -0.834000       15.9994           0
      3623 WT1      940      TIP3     H1       HT       0.417000        1.0080           0
      3624 WT1      940      TIP3     H2       HT       0.417000        1.0080           0
      3625 WT1      941      TIP3     OH2      OT      -0.834000       15.9994           0
      3626 WT1      941      TIP3     H1       HT       0.417000        1.0080           0
      3627 WT1      941      TIP3     H2       HT       0.417000        1.0080           0
      3628 WT1      942      TIP3     OH2      OT      -0.834000       15.9994           0
      3629 WT1      942      TIP3     H1       HT       0.417000        1.0080           0
      3630 WT1      942      TIP3     H2       HT       0.417000        1.0080           0
      3631 WT1      943      TIP3     OH2      OT      -0.834000       15.9994           0
      3632 WT1      943      TIP3     H1       HT       0.417000        1.0080           0
      3633 WT1      943      TIP3     H2       HT       0.417000        1.0080           0
      3634 WT1      944      TIP3     OH2      OT      -0.834000       15.9994           0
      3635 WT1      944      TIP3     H1       HT       0.417000        1.0080           0
      3636 WT1      944      TIP3     H2       HT       0.417000        1.0080           0
      3637 WT1      945      TIP3     OH2      OT      -0.834000       15.9994           0
      3638 WT1      945      TIP3     H1       HT       0.417000        1.0080           0
      3639 WT1      945      TIP3     H2       HT       0.417000        1.0080           0
      3640 WT1      946      TIP3     OH2      OT      -0.834000       15.9994           0
      3641 WT1      946      TIP3     H1       HT       0.417000        1.0080           0
      3642 WT1      946      TIP3     H2       HT       0.417000        1.0080           0
      3643 WT1      947      TIP3     OH2      OT      -0.834000       15.9994           0
      3644 WT1      947      TIP3     H1       HT       0.417000        1.0080           0
      3645 WT1      947      TIP3     H2       HT       0.417000        1.0080           0
      3646 WT1      948      TIP3     OH2      OT      -0.834000       15.9994           0
      3647 WT1      948      TIP3     H1       HT       0.417000        1.0080           0
      3648 WT1      948      TIP3     H2       HT       0.417000        1.0080           0
      3649 WT1      949      TIP3     OH2      OT      -0.834000       15.9994           0
      3650 WT1      949      TIP3     H1       HT       0.417000        1.0080           0
      3651 WT1      949      TIP3     H2       HT       0.417000        1.0080           0
      3652 WT1      950      TIP3     OH2      OT      -0.834000       15.9994           0
      3653 WT1      950      TIP3     H1       HT       0.417000        1.0080           0
      3654 WT1      950      TIP3     H2       HT       0.417000        1.0080           0
      3655 WT1      951      TIP3     OH2      OT      -0.834000       15.9994           0
      3656 WT1      951      TIP3     H1       HT       0.417000        1.0080           0
      3657 WT1      951      TIP3     H2       HT       0.417000        1.0080           0
      3658 WT1      952      TIP3     OH2      OT      -0.834000       15.9994           0
      3659 WT1      952      TIP3     H1       HT       0.417000        1.0080           0
      3660 WT1      952      TIP3     H2       HT       0.417000        1.0080           0
      3661 WT1      953      TIP3     OH2      OT      -0.834000       15.9994           0
      3662 WT1      953      TIP3     H1       HT       0.417000        1.0080           0
      3663 WT1      953      TIP3     H2       HT       0.417000        1.0080           0
      3664 WT1      954      TIP3     OH2      OT      -0.834000       15.9994           0
      3665 WT1      954      TIP3     H1       HT       0.417000        1.0080           0
      3666 WT1      954      TIP3     H2       HT       0.417000        1.0080           0
      3667 WT1      955      TIP3     OH2      OT      -0.834000       15.9994           0
      3668 WT1      955      TIP3     H1       HT       0.417000        1.0080           0
      3669 WT1      955      TIP3     H2       HT       0.417000        1.0080           0
      3670 WT1      956      TIP3     OH2      OT      -0.834000       15.9994           0
      3671 WT1      956      TIP3     H1       HT       0.417000        1.0080           0
      3672 WT1      956      TIP3     H2       HT       0.417000        1.0080           0
      3673 WT1      957      TIP3     OH2      OT      -0.834000       15.9994           0
      3674 WT1      957      TIP3     H1       HT       0.417000        1.0080           0
      3675 WT1      957      TIP3     H2       HT       0.417000        1.0080           0
      3676 WT1      958      TIP3     OH2      OT      -0.834000       15.9994           0
      3677 WT1      958      TIP3     H1       HT       0.417000        1.0080           0
      3678 WT1      958      TIP3     H2       HT       0.417000        1.0080           0
      3679 WT1      959      TIP3     OH2      OT      -0.834000       15.9994           0
      3680 WT1      959      TIP3     H1       HT       0.417000        1.0080           0
      3681 WT1      959      TIP3     H2       HT       0.417000        1.0080           0
      3682 WT1      960      TIP3     OH2      OT      -0.834000       15.9994           0
      3683 WT1      960      TIP3     H1       HT       0.417000        1.0080           0
      3684 WT1      960      TIP3     H2       HT       0.417000        1.0080           0
      3685 WT1      961      TIP3     OH2      OT      -0.834000       15.9994           0
      3686 WT1      961      TIP3     H1       HT       0.417000        1.0080           0
      3687 WT1      961      TIP3     H2       HT       0.417000        1.0080           0
      3688 WT1      962      TIP3     OH2      OT      -0.834000       15.9994           0
      3689 WT1      962      TIP3     H1       HT       0.417000        1.0080           0
      3690 WT1      962      TIP3     H2       HT       0.417000        1.0080           0
      3691 WT1      963      TIP3     OH2      OT      -0.834000       15.9994           0
      3692 WT1      963      TIP3     H1       HT       0.417000        1.0080           0
      3693 WT1      963      TIP3     H2       HT       0.417000        1.0080           0
      3694 WT1      964      TIP3     OH2      OT      -0.834000       15.9994           0
      3695 WT1      964      TIP3     H1       HT       0.417000        1.0080           0
      3696 WT1      964      TIP3     H2       HT       0.417000        1.0080           0
      3697 WT1      965      TIP3     OH2      OT      -0.834000       15.9994           0
      3698 WT1      965      TIP3     H1       HT       0.417000        1.0080           0
      3699 WT1      965      TIP3     H2       HT       0.417000        1.0080           0
      3700 WT1      966      TIP3     OH2      OT      -0.834000       15.9994           0
      3701 WT1      966      TIP3     H1       HT       0.417000        1.0080           0
      3702 WT1      966      TIP3     H2       HT       0.417000        1.0080           0
      3703 WT1      967      TIP3     OH2      OT      -0.834000       15.9994           0
      3704 WT1      967      TIP3     H1       HT       0.417000        1.0080           0
      3705 WT1      967      TIP3     H2       HT       0.417000        1.0080           0
      3706 WT1      968      TIP3     OH2      OT      -0.834000       15.9994           0
      3707 WT1      968      TIP3     H1       HT       0.417000        1.0080           0
      3708 WT1      968      TIP3     H2       HT       0.417000        1.0080           0
      3709 WT1      969      TIP3     OH2      OT      -0.834000       15.9994           0
      3710 WT1      969      TIP3     H1       HT       0.417000        1.0080           0
      3711 WT1      969      TIP3     H2       HT       0.417000        1.0080           0
      3712 WT1      970      TIP3     OH2      OT      -0.834000       15.9994           0
      3713 WT1      970      TIP3     H1       HT       0.417000        1.0080           0
      3714 WT1      970      TIP3     H2       HT       0.417000        1.0080           0
      3715 WT1      971      TIP3     OH2      OT      -0.834000       15.9994           0
      3716 WT1      971      TIP3     H1       HT       0.417000        1.0080           0
      3717 WT1      971      TIP3     H2       HT       0.417000        1.0080           0
      3718 WT1      972      TIP3     OH2      OT      -0.834000       15.9994           0
      3719 WT1      972      TIP3     H1       HT       0.417000        1.0080           0
      3720 WT1      972      TIP3     H2       HT       0.417000        1.0080           0
      3721 WT1      973      TIP3     OH2      OT      -0.834000       15.9994           0
      3722 WT1      973      TIP3     H1       HT       0.417000        1.0080           0
      3723 WT1      973      TIP3     H2       HT       0.417000        1.0080           0
      3724 WT1      974      TIP3     OH2      OT      -0.834000       15.9994           0
      3725 WT1      974      TIP3     H1       HT       0.417000        1.0080           0
      3726 WT1      974      TIP3     H2       HT       0.417000        1.0080           0
      3727 WT1      975      TIP3     OH2      OT      -0.834000       15.9994           0
      3728 WT1      975      TIP3     H1       HT       0.417000        1.0080           0
      3729 WT1      975      TIP3     H2       HT       0.417000        1.0080           0
      3730 WT1      976      TIP3     OH2      OT      -0.834000       15.9994           0
      3731 WT1      976      TIP3     H1       HT       0.417000        1.0080           0
      3732 WT1      976      TIP3     H2       HT       0.417000        1.0080           0
      3733 WT1      977      TIP3     OH2      OT      -0.834000       15.9994           0
      3734 WT1      977      TIP3     H1       HT       0.417000        1.0080           0
      3735 WT1      977      TIP3     H2       HT       0.417000        1.0080           0
      3736 WT1      978      TIP3     OH2      OT      -0.834000       15.9994           0
      3737 WT1      978      TIP3     H1       HT       0.417000        1.0080           0
      3738 WT1      978      TIP3     H2       HT       0.417000        1.0080           0
      3739 WT1      979      TIP3     OH2      OT      -0.834000       15.9994           0
      3740 WT1      979      TIP3     H1       HT       0.417000        1.0080           0
      3741 WT1      979      TIP3     H2       HT       0.417000        1.0080           0
      3742 WT1      980      TIP3     OH2      OT      -0.834000       15.9994           0
      3743 WT1      980      TIP3     H1       HT       0.417000        1.0080           0
      3744 WT1      980      TIP3     H2       HT       0.417000        1.0080           0
      3745 WT1      982      TIP3     OH2      OT      -0.834000       15.9994           0
      3746 WT1      982      TIP3     H1       HT       0.417000        1.0080           0
      3747 WT1      982      TIP3     H2       HT       0.417000        1.0080           0
      3748 WT1      983      TIP3     OH2      OT      -0.834000       15.9994           0
      3749 WT1      983      TIP3     H1       HT       0.417000        1.0080           0
      3750 WT1      983      TIP3     H2       HT       0.417000        1.0080           0
      3751 WT1      984      TIP3     OH2      OT      -0.834000       15.9994           0
      3752 WT1      984      TIP3     H1       HT       0.417000        1.0080           0
      3753 WT1      984      TIP3     H2       HT       0.417000        1.0080           0
      3754 WT1      985      TIP3     OH2      OT      -0.834000       15.9994           0
      3755 WT1      985      TIP3     H1       HT       0.417000        1.0080           0
      3756 WT1      985      TIP3     H2       HT       0.417000        1.0080           0
      3757 WT1      986      TIP3     OH2      OT      -0.834000       15.9994           0
      3758 WT1      986      TIP3     H1       HT       0.417000        1.0080           0
      3759 WT1      986      TIP3     H2       HT       0.417000        1.0080           0
      3760 WT1      988      TIP3     OH2      OT      -0.834000       15.9994           0
      3761 WT1      988      TIP3     H1       HT       0.417000        1.0080           0
      3762 WT1      988      TIP3     H2       HT       0.417000        1.0080           0
      3763 WT1      989      TIP3     OH2      OT      -0.834000       15.9994           0
      3764 WT1      989      TIP3     H1       HT       0.417000        1.0080           0
      3765 WT1      989      TIP3     H2       HT       0.417000        1.0080           0
      3766 WT1      990      TIP3     OH2      OT      -0.834000       15.9994           0
      3767 WT1      990      TIP3     H1       HT       0.417000        1.0080           0
      3768 WT1      990      TIP3     H2       HT       0.417000        1.0080           0
      3769 WT1      991      TIP3     OH2      OT      -0.834000       15.9994           0
      3770 WT1      991      TIP3     H1       HT       0.417000        1.0080           0
      3771 WT1      991      TIP3     H2       HT       0.417000        1.0080           0
      3772 WT1      992      TIP3     OH2      OT      -0.834000       15.9994           0
      3773 WT1      992      TIP3     H1       HT       0.417000        1.0080           0
      3774 WT1      992      TIP3     H2       HT       0.417000        1.0080           0
      3775 WT1      994      TIP3     OH2      OT      -0.834000       15.9994           0
      3776 WT1      994      TIP3     H1       HT       0.417000        1.0080           0
      3777 WT1      994      TIP3     H2       HT       0.417000        1.0080           0
      3778 WT1      995      TIP3     OH2      OT      -0.834000       15.9994           0
      3779 WT1      995      TIP3     H1       HT       0.417000        1.0080           0
      3780 WT1      995      TIP3     H2       HT       0.417000        1.0080           0
      3781 WT1      996      TIP3     OH2      OT      -0.834000       15.9994           0
      3782 WT1      996      TIP3     H1       HT       0.417000        1.0080           0
      3783 WT1      996      TIP3     H2       HT       0.417000        1.0080           0
      3784 WT1      997      TIP3     OH2      OT      -0.834000       15.9994           0
      3785 WT1      997      TIP3     H1       HT       0.417000        1.0080           0
      3786 WT1      997      TIP3     H2       HT       0.417000        1.0080           0
      3787 WT1      998      TIP3     OH2      OT      -0.834000       15.9994           0
      3788 WT1      998      TIP3     H1       HT       0.417000        1.0080           0
      3789 WT1      998      TIP3     H2       HT       0.417000        1.0080           0
      3790 WT1      999      TIP3     OH2      OT      -0.834000       15.9994           0
      3791 WT1      999      TIP3     H1       HT       0.417000        1.0080           0
      3792 WT1      999      TIP3     H2       HT       0.417000        1.0080           0
      3793 WT1      1000     TIP3     OH2      OT      -0.834000       15.9994           0
      3794 WT1      1000     TIP3     H1       HT       0.417000        1.0080           0
      3795 WT1      1000     TIP3     H2       HT       0.417000        1.0080           0
      3796 WT1      1001     TIP3     OH2      OT      -0.834000       15.9994           0
      3797 WT1      1001     TIP3     H1       HT       0.417000        1.0080           0
      3798 WT1      1001     TIP3     H2       HT       0.417000        1.0080           0
      3799 WT1      1002     TIP3     OH2      OT      -0.834000       15.9994           0
      3800 WT1      1002     TIP3     H1       HT       0.417000        1.0080           0
      3801 WT1      1002     TIP3     H2       HT       0.417000        1.0080           0
      3802 WT1      1003     TIP3     OH2      OT      -0.834000       15.9994           0
      3803 WT1      1003     TIP3     H1       HT       0.417000        1.0080           0
      3804 WT1      1003     TIP3     H2       HT       0.417000        1.0080           0
      3805 WT1      1004     TIP3     OH2      OT      -0.834000       15.9994           0
      3806 WT1      1004     TIP3     H1       HT       0.417000        1.0080           0
      3807 WT1      1004     TIP3     H2       HT       0.417000        1.0080           0
      3808 WT1      1005     TIP3     OH2      OT      -0.834000       15.9994           0
      3809 WT1      1005     TIP3     H1       HT       0.417000        1.0080           0
      3810 WT1      1005     TIP3     H2       HT       0.417000        1.0080           0
      3811 WT1      1006     TIP3     OH2      OT      -0.834000       15.9994           0
      3812 WT1      1006     TIP3     H1       HT       0.417000        1.0080           0
      3813 WT1      1006     TIP3     H2       HT       0.417000        1.0080           0
      3814 WT1      1007     TIP3     OH2      OT      -0.834000       15.9994           0
      3815 WT1      1007     TIP3     H1       HT       0.417000        1.0080           0
      3816 WT1      1007     TIP3     H2       HT       0.417000        1.0080           0
      3817 WT1      1008     TIP3     OH2      OT      -0.834000       15.9994           0
      3818 WT1      1008     TIP3     H1       HT       0.417000        1.0080           0
      3819 WT1      1008     TIP3     H2       HT       0.417000        1.0080           0
      3820 WT1      1009     TIP3     OH2      OT      -0.834000       15.9994           0
      3821 WT1      1009     TIP3     H1       HT       0.417000        1.0080           0
      3822 WT1      1009     TIP3     H2       HT       0.417000        1.0080           0
      3823 WT1      1010     TIP3     OH2      OT      -0.834000       15.9994           0
      3824 WT1      1010     TIP3     H1       HT       0.417000        1.0080           0
      3825 WT1      1010     TIP3     H2       HT       0.417000        1.0080           0
      3826 WT1      1011     TIP3     OH2      OT      -0.834000       15.9994           0
      3827 WT1      1011     TIP3     H1       HT       0.417000        1.0080           0
      3828 WT1      1011     TIP3     H2       HT       0.417000        1.0080           0
      3829 WT1      1012     TIP3     OH2      OT      -0.834000       15.9994           0
      3830 WT1      1012     TIP3     H1       HT       0.417000        1.0080           0
      3831 WT1      1012     TIP3     H2       HT       0.417000        1.0080           0
      3832 WT1      1013     TIP3     OH2      OT      -0.834000       15.9994           0
      3833 WT1      1013     TIP3     H1       HT       0.417000        1.0080           0
      3834 WT1      1013     TIP3     H2       HT       0.417000        1.0080           0
      3835 WT1      1014     TIP3     OH2      OT      -0.834000       15.9994           0
      3836 WT1      1014     TIP3     H1       HT       0.417000        1.0080           0
      3837 WT1      1014     TIP3     H2       HT       0.417000        1.0080           0
      3838 WT1      1015     TIP3     OH2      OT      -0.834000       15.9994           0
      3839 WT1      1015     TIP3     H1       HT       0.417000        1.0080           0
      3840 WT1      1015     TIP3     H2       HT       0.417000        1.0080           0
      3841 WT1      1016     TIP3     OH2      OT      -0.834000       15.9994           0
      3842 WT1      1016     TIP3     H1       HT       0.417000        1.0080           0
      3843 WT1      1016     TIP3     H2       HT       0.417000        1.0080           0
      3844 WT1      1017     TIP3     OH2      OT      -0.834000       15.9994           0
      3845 WT1      1017     TIP3     H1       HT       0.417000        1.0080           0
      3846 WT1      1017     TIP3     H2       HT       0.417000        1.0080           0
      3847 WT1      1018     TIP3     OH2      OT      -0.834000       15.9994           0
      3848 WT1      1018     TIP3     H1       HT       0.417000        1.0080           0
      3849 WT1      1018     TIP3     H2       HT       0.417000        1.0080           0
      3850 WT1      1020     TIP3     OH2      OT      -0.834000       15.9994           0
      3851 WT1      1020     TIP3     H1       HT       0.417000        1.0080           0
      3852 WT1      1020     TIP3     H2       HT       0.417000        1.0080           0
      3853 WT1      1021     TIP3     OH2      OT      -0.834000       15.9994           0
      3854 WT1      1021     TIP3     H1       HT       0.417000        1.0080           0
      3855 WT1      1021     TIP3     H2       HT       0.417000        1.0080           0
      3856 WT1      1022     TIP3     OH2      OT      -0.834000       15.9994           0
      3857 WT1      1022     TIP3     H1       HT       0.417000        1.0080           0
      3858 WT1      1022     TIP3     H2       HT       0.417000        1.0080           0
      3859 WT1      1023     TIP3     OH2      OT      -0.834000       15.9994           0
      3860 WT1      1023     TIP3     H1       HT       0.417000        1.0080           0
      3861 WT1      1023     TIP3     H2       HT       0.417000        1.0080           0
      3862 WT1      1025     TIP3     OH2      OT      -0.834000       15.9994           0
      3863 WT1      1025     TIP3     H1       HT       0.417000        1.0080           0
      3864 WT1      1025     TIP3     H2       HT       0.417000        1.0080           0
      3865 WT1      1026     TIP3     OH2      OT      -0.834000       15.9994           0
      3866 WT1      1026     TIP3     H1       HT       0.417000        1.0080           0
      3867 WT1      1026     TIP3     H2       HT       0.417000        1.0080           0
      3868 WT1      1027     TIP3     OH2      OT      -0.834000       15.9994           0
      3869 WT1      1027     TIP3     H1       HT       0.417000        1.0080           0
      3870 WT1      1027     TIP3     H2       HT       0.417000        1.0080           0
      3871 WT1      1028     TIP3     OH2      OT      -0.834000       15.9994           0
      3872 WT1      1028     TIP3     H1       HT       0.417000        1.0080           0
      3873 WT1      1028     TIP3     H2       HT       0.417000        1.0080           0
      3874 WT1      1029     TIP3     OH2      OT      -0.834000       15.9994           0
      3875 WT1      1029     TIP3     H1       HT       0.417000        1.0080           0
      3876 WT1      1029     TIP3     H2       HT       0.417000        1.0080           0
      3877 WT1      1030     TIP3     OH2      OT      -0.834000       15.9994           0
      3878 WT1      1030     TIP3     H1       HT       0.417000        1.0080           0
      3879 WT1      1030     TIP3     H2       HT       0.417000        1.0080           0
      3880 WT1      1031     TIP3     OH2      OT      -0.834000       15.9994           0
      3881 WT1      1031     TIP3     H1       HT       0.417000        1.0080           0
      3882 WT1      1031     TIP3     H2       HT       0.417000        1.0080           0
      3883 WT1      1032     TIP3     OH2      OT      -0.834000       15.9994           0
      3884 WT1      1032     TIP3     H1       HT       0.417000        1.0080           0
      3885 WT1      1032     TIP3     H2       HT       0.417000        1.0080           0
      3886 WT1      1033     TIP3     OH2      OT      -0.834000       15.9994           0
      3887 WT1      1033     TIP3     H1       HT       0.417000        1.0080           0
      3888 WT1      1033     TIP3     H2       HT       0.417000        1.0080           0
      3889 WT1      1034     TIP3     OH2      OT      -0.834000       15.9994           0
      3890 WT1      1034     TIP3     H1       HT       0.417000        1.0080           0
      3891 WT1      1034     TIP3     H2       HT       0.417000        1.0080           0
      3892 WT1      1035     TIP3     OH2      OT      -0.834000       15.9994           0
      3893 WT1      1035     TIP3     H1       HT       0.417000        1.0080           0
      3894 WT1      1035     TIP3     H2       HT       0.417000        1.0080           0
      3895 WT1      1036     TIP3     OH2      OT      -0.834000       15.9994           0
      3896 WT1      1036     TIP3     H1       HT       0.417000        1.0080           0
      3897 WT1      1036     TIP3     H2       HT       0.417000        1.0080           0
      3898 WT1      1037     TIP3     OH2      OT      -0.834000       15.9994           0
      3899 WT1      1037     TIP3     H1       HT       0.417000        1.0080           0
      3900 WT1      1037     TIP3     H2       HT       0.417000        1.0080           0
      3901 WT1      1038     TIP3     OH2      OT      -0.834000       15.9994           0
      3902 WT1      1038     TIP3     H1       HT       0.417000        1.0080           0
      3903 WT1      1038     TIP3     H2       HT       0.417000        1.0080           0
      3904 WT1      1039     TIP3     OH2      OT      -0.834000       15.9994           0
      3905 WT1      1039     TIP3     H1       HT       0.417000        1.0080           0
      3906 WT1      1039     TIP3     H2       HT       0.417000        1.0080           0
      3907 WT1      1040     TIP3     OH2      OT      -0.834000       15.9994           0
      3908 WT1      1040     TIP3     H1       HT       0.417000        1.0080           0
      3909 WT1      1040     TIP3     H2       HT       0.417000        1.0080           0
      3910 WT1      1041     TIP3     OH2      OT      -0.834000       15.9994           0
      3911 WT1      1041     TIP3     H1       HT       0.417000        1.0080           0
      3912 WT1      1041     TIP3     H2       HT       0.417000        1.0080           0
      3913 WT1      1042     TIP3     OH2      OT      -0.834000       15.9994           0
      3914 WT1      1042     TIP3     H1       HT       0.417000        1.0080           0
      3915 WT1      1042     TIP3     H2       HT       0.417000        1.0080           0
      3916 WT1      1043     TIP3     OH2      OT      -0.834000       15.9994           0
      3917 WT1      1043     TIP3     H1       HT       0.417000        1.0080           0
      3918 WT1      1043     TIP3     H2       HT       0.417000        1.0080           0
      3919 WT1      1044     TIP3     OH2      OT      -0.834000       15.9994           0
      3920 WT1      1044     TIP3     H1       HT       0.417000        1.0080           0
      3921 WT1      1044     TIP3     H2       HT       0.417000        1.0080           0
      3922 WT1      1045     TIP3     OH2      OT      -0.834000       15.9994           0
      3923 WT1      1045     TIP3     H1       HT       0.417000        1.0080           0
      3924 WT1      1045     TIP3     H2       HT       0.417000        1.0080           0
      3925 WT1      1046     TIP3     OH2      OT      -0.834000       15.9994           0
      3926 WT1      1046     TIP3     H1       HT       0.417000        1.0080           0
      3927 WT1      1046     TIP3     H2       HT       0.417000        1.0080           0
      3928 WT1      1047     TIP3     OH2      OT      -0.834000       15.9994           0
      3929 WT1      1047     TIP3     H1       HT       0.417000        1.0080           0
      3930 WT1      1047     TIP3     H2       HT       0.417000        1.0080           0
      3931 WT1      1048     TIP3     OH2      OT      -0.834000       15.9994           0
      3932 WT1      1048     TIP3     H1       HT       0.417000        1.0080           0
      3933 WT1      1048     TIP3     H2       HT       0.417000        1.0080           0
      3934 WT1      1049     TIP3     OH2      OT      -0.834000       15.9994           0
      3935 WT1      1049     TIP3     H1       HT       0.417000        1.0080           0
      3936 WT1      1049     TIP3     H2       HT       0.417000        1.0080           0
      3937 WT1      1050     TIP3     OH2      OT      -0.834000       15.9994           0
      3938 WT1      1050     TIP3     H1       HT       0.417000        1.0080           0
      3939 WT1      1050     TIP3     H2       HT       0.417000        1.0080           0
      3940 WT1      1051     TIP3     OH2      OT      -0.834000       15.9994           0
      3941 WT1      1051     TIP3     H1       HT       0.417000        1.0080           0
      3942 WT1      1051     TIP3     H2       HT       0.417000        1.0080           0
      3943 WT1      1052     TIP3     OH2      OT      -0.834000       15.9994           0
      3944 WT1      1052     TIP3     H1       HT       0.417000        1.0080           0
      3945 WT1      1052     TIP3     H2       HT       0.417000        1.0080           0
      3946 WT1      1053     TIP3     OH2      OT      -0.834000       15.9994           0
      3947 WT1      1053     TIP3     H1       HT       0.417000        1.0080           0
      3948 WT1      1053     TIP3     H2       HT       0.417000        1.0080           0
      3949 WT1      1054     TIP3     OH2      OT      -0.834000       15.9994           0
      3950 WT1      1054     TIP3     H1       HT       0.417000        1.0080           0
      3951 WT1      1054     TIP3     H2       HT       0.417000        1.0080           0
      3952 WT1      1055     TIP3     OH2      OT      -0.834000       15.9994           0
      3953 WT1      1055     TIP3     H1       HT       0.417000        1.0080           0
      3954 WT1      1055     TIP3     H2       HT       0.417000        1.0080           0
      3955 WT1      1056     TIP3     OH2      OT      -0.834000       15.9994           0
      3956 WT1      1056     TIP3     H1       HT       0.417000        1.0080           0
      3957 WT1      1056     TIP3     H2       HT       0.417000        1.0080           0
      3958 WT1      1057     TIP3     OH2      OT      -0.834000       15.9994           0
      3959 WT1      1057     TIP3     H1       HT       0.417000        1.0080           0
      3960 WT1      1057     TIP3     H2       HT       0.417000        1.0080           0
      3961 WT1      1058     TIP3     OH2      OT      -0.834000       15.9994           0
      3962 WT1      1058     TIP3     H1       HT       0.417000        1.0080           0
      3963 WT1      1058     TIP3     H2       HT       0.417000        1.0080           0
      3964 WT1      1059     TIP3     OH2      OT      -0.834000       15.9994           0
      3965 WT1      1059     TIP3     H1       HT       0.417000        1.0080           0
      3966 WT1      1059     TIP3     H2       HT       0.417000        1.0080           0
      3967 WT1      1060     TIP3     OH2      OT      -0.834000       15.9994           0
      3968 WT1      1060     TIP3     H1       HT       0.417000        1.0080           0
      3969 WT1      1060     TIP3     H2       HT       0.417000        1.0080           0
      3970 WT1      1061     TIP3     OH2      OT      -0.834000       15.9994           0
      3971 WT1      1061     TIP3     H1       HT       0.417000        1.0080           0
      3972 WT1      1061     TIP3     H2       HT       0.417000        1.0080           0
      3973 WT1      1062     TIP3     OH2      OT      -0.834000       15.9994           0
      3974 WT1      1062     TIP3     H1       HT       0.417000        1.0080           0
      3975 WT1      1062     TIP3     H2       HT       0.417000        1.0080           0
      3976 WT1      1063     TIP3     OH2      OT      -0.834000       15.9994           0
      3977 WT1      1063     TIP3     H1       HT       0.417000        1.0080           0
      3978 WT1      1063     TIP3     H2       HT       0.417000        1.0080           0
      3979 WT1      1064     TIP3     OH2      OT      -0.834000       15.9994           0
      3980 WT1      1064     TIP3     H1       HT       0.417000        1.0080           0
      3981 WT1      1064     TIP3     H2       HT       0.417000        1.0080           0
      3982 WT1      1065     TIP3     OH2      OT      -0.834000       15.9994           0
      3983 WT1      1065     TIP3     H1       HT       0.417000        1.0080           0
      3984 WT1      1065     TIP3     H2       HT       0.417000        1.0080           0
      3985 WT1      1066     TIP3     OH2      OT      -0.834000       15.9994           0
      3986 WT1      1066     TIP3     H1       HT       0.417000        1.0080           0
      3987 WT1      1066     TIP3     H2       HT       0.417000        1.0080           0
      3988 WT1      1067     TIP3     OH2      OT      -0.834000       15.9994           0
      3989 WT1      1067     TIP3     H1       HT       0.417000        1.0080           0
      3990 WT1      1067     TIP3     H2       HT       0.417000        1.0080           0
      3991 WT1      1068     TIP3     OH2      OT      -0.834000       15.9994           0
      3992 WT1      1068     TIP3     H1       HT       0.417000        1.0080           0
      3993 WT1      1068     TIP3     H2       HT       0.417000        1.0080           0
      3994 WT1      1069     TIP3     OH2      OT      -0.834000       15.9994           0
      3995 WT1      1069     TIP3     H1       HT       0.417000        1.0080           0
      3996 WT1      1069     TIP3     H2       HT       0.417000        1.0080           0
      3997 WT1      1070     TIP3     OH2      OT      -0.834000       15.9994           0
      3998 WT1      1070     TIP3     H1       HT       0.417000        1.0080           0
      3999 WT1      1070     TIP3     H2       HT       0.417000        1.0080           0
      4000 WT1      1071     TIP3     OH2      OT      -0.834000       15.9994           0
      4001 WT1      1071     TIP3     H1       HT       0.417000        1.0080           0
      4002 WT1      1071     TIP3     H2       HT       0.417000        1.0080           0
      4003 WT1      1072     TIP3     OH2      OT      -0.834000       15.9994           0
      4004 WT1      1072     TIP3     H1       HT       0.417000        1.0080           0
      4005 WT1      1072     TIP3     H2       HT       0.417000        1.0080           0
      4006 WT1      1073     TIP3     OH2      OT      -0.834000       15.9994           0
      4007 WT1      1073     TIP3     H1       HT       0.417000        1.0080           0
      4008 WT1      1073     TIP3     H2       HT       0.417000        1.0080           0
      4009 WT1      1074     TIP3     OH2      OT      -0.834000       15.9994           0
      4010 WT1      1074     TIP3     H1       HT       0.417000        1.0080           0
      4011 WT1      1074     TIP3     H2       HT       0.417000        1.0080           0
      4012 WT1      1076     TIP3     OH2      OT      -0.834000       15.9994           0
      4013 WT1      1076     TIP3     H1       HT       0.417000        1.0080           0
      4014 WT1      1076     TIP3     H2       HT       0.417000        1.0080           0
      4015 WT1      1077     TIP3     OH2      OT      -0.834000       15.9994           0
      4016 WT1      1077     TIP3     H1       HT       0.417000        1.0080           0
      4017 WT1      1077     TIP3     H2       HT       0.417000        1.0080           0
      4018 WT1      1078     TIP3     OH2      OT      -0.834000       15.9994           0
      4019 WT1      1078     TIP3     H1       HT       0.417000        1.0080           0
      4020 WT1      1078     TIP3     H2       HT       0.417000        1.0080           0
      4021 WT1      1079     TIP3     OH2      OT      -0.834000       15.9994           0
      4022 WT1      1079     TIP3     H1       HT       0.417000        1.0080           0
      4023 WT1      1079     TIP3     H2       HT       0.417000        1.0080           0
      4024 WT1      1080     TIP3     OH2      OT      -0.834000       15.9994           0
      4025 WT1      1080     TIP3     H1       HT       0.417000        1.0080           0
      4026 WT1      1080     TIP3     H2       HT       0.417000        1.0080           0
      4027 WT1      1081     TIP3     OH2      OT      -0.834000       15.9994           0
      4028 WT1      1081     TIP3     H1       HT       0.417000        1.0080           0
      4029 WT1      1081     TIP3     H2       HT       0.417000        1.0080           0
      4030 WT1      1082     TIP3     OH2      OT      -0.834000       15.9994           0
      4031 WT1      1082     TIP3     H1       HT       0.417000        1.0080           0
      4032 WT1      1082     TIP3     H2       HT       0.417000        1.0080           0
      4033 WT1      1083     TIP3     OH2      OT      -0.834000       15.9994           0
      4034 WT1      1083     TIP3     H1       HT       0.417000        1.0080           0
      4035 WT1      1083     TIP3     H2       HT       0.417000        1.0080           0
      4036 WT1      1084     TIP3     OH2      OT      -0.834000       15.9994           0
      4037 WT1      1084     TIP3     H1       HT       0.417000        1.0080           0
      4038 WT1      1084     TIP3     H2       HT       0.417000        1.0080           0
      4039 WT1      1085     TIP3     OH2      OT      -0.834000       15.9994           0
      4040 WT1      1085     TIP3     H1       HT       0.417000        1.0080           0
      4041 WT1      1085     TIP3     H2       HT       0.417000        1.0080           0
      4042 WT1      1086     TIP3     OH2      OT      -0.834000       15.9994           0
      4043 WT1      1086     TIP3     H1       HT       0.417000        1.0080           0
      4044 WT1      1086     TIP3     H2       HT       0.417000        1.0080           0
      4045 WT1      1087     TIP3     OH2      OT      -0.834000       15.9994           0
      4046 WT1      1087     TIP3     H1       HT       0.417000        1.0080           0
      4047 WT1      1087     TIP3     H2       HT       0.417000        1.0080           0
      4048 WT1      1088     TIP3     OH2      OT      -0.834000       15.9994           0
      4049 WT1      1088     TIP3     H1       HT       0.417000        1.0080           0
      4050 WT1      1088     TIP3     H2       HT       0.417000        1.0080           0
      4051 WT1      1089     TIP3     OH2      OT      -0.834000       15.9994           0
      4052 WT1      1089     TIP3     H1       HT       0.417000        1.0080           0
      4053 WT1      1089     TIP3     H2       HT       0.417000        1.0080           0
      4054 WT1      1090     TIP3     OH2      OT      -0.834000       15.9994           0
      4055 WT1      1090     TIP3     H1       HT       0.417000        1.0080           0
      4056 WT1      1090     TIP3     H2       HT       0.417000        1.0080           0
      4057 WT1      1091     TIP3     OH2      OT      -0.834000       15.9994           0
      4058 WT1      1091     TIP3     H1       HT       0.417000        1.0080           0
      4059 WT1      1091     TIP3     H2       HT       0.417000        1.0080           0
      4060 WT1      1092     TIP3     OH2      OT      -0.834000       15.9994           0
      4061 WT1      1092     TIP3     H1       HT       0.417000        1.0080           0
      4062 WT1      1092     TIP3     H2       HT       0.417000        1.0080           0
      4063 WT1      1093     TIP3     OH2      OT      -0.834000       15.9994           0
      4064 WT1      1093     TIP3     H1       HT       0.417000        1.0080           0
      4065 WT1      1093     TIP3     H2       HT       0.417000        1.0080           0
      4066 WT1      1094     TIP3     OH2      OT      -0.834000       15.9994           0
      4067 WT1      1094     TIP3     H1       HT       0.417000        1.0080           0
      4068 WT1      1094     TIP3     H2       HT       0.417000        1.0080           0
      4069 WT1      1095     TIP3     OH2      OT      -0.834000       15.9994           0
      4070 WT1      1095     TIP3     H1       HT       0.417000        1.0080           0
      4071 WT1      1095     TIP3     H2       HT       0.417000        1.0080           0
      4072 WT1      1096     TIP3     OH2      OT      -0.834000       15.9994           0
      4073 WT1      1096     TIP3     H1       HT       0.417000        1.0080           0
      4074 WT1      1096     TIP3     H2       HT       0.417000        1.0080           0
      4075 WT1      1097     TIP3     OH2      OT      -0.834000       15.9994           0
      4076 WT1      1097     TIP3     H1       HT       0.417000        1.0080           0
      4077 WT1      1097     TIP3     H2       HT       0.417000        1.0080           0
      4078 WT1      1098     TIP3     OH2      OT      -0.834000       15.9994           0
      4079 WT1      1098     TIP3     H1       HT       0.417000        1.0080           0
      4080 WT1      1098     TIP3     H2       HT       0.417000        1.0080           0
      4081 WT1      1099     TIP3     OH2      OT      -0.834000       15.9994           0
      4082 WT1      1099     TIP3     H1       HT       0.417000        1.0080           0
      4083 WT1      1099     TIP3     H2       HT       0.417000        1.0080           0
      4084 WT1      1100     TIP3     OH2      OT      -0.834000       15.9994           0
      4085 WT1      1100     TIP3     H1       HT       0.417000        1.0080           0
      4086 WT1      1100     TIP3     H2       HT       0.417000        1.0080           0
      4087 WT1      1101     TIP3     OH2      OT      -0.834000       15.9994           0
      4088 WT1      1101     TIP3     H1       HT       0.417000        1.0080           0
      4089 WT1      1101     TIP3     H2       HT       0.417000        1.0080           0
      4090 WT1      1102     TIP3     OH2      OT      -0.834000       15.9994           0
      4091 WT1      1102     TIP3     H1       HT       0.417000        1.0080           0
      4092 WT1      1102     TIP3     H2       HT       0.417000        1.0080           0
      4093 WT1      1103     TIP3     OH2      OT      -0.834000       15.9994           0
      4094 WT1      1103     TIP3     H1       HT       0.417000        1.0080           0
      4095 WT1      1103     TIP3     H2       HT       0.417000        1.0080           0
      4096 WT1      1104     TIP3     OH2      OT      -0.834000       15.9994           0
      4097 WT1      1104     TIP3     H1       HT       0.417000        1.0080           0
      4098 WT1      1104     TIP3     H2       HT       0.417000        1.0080           0
      4099 WT1      1105     TIP3     OH2      OT      -0.834000       15.9994           0
      4100 WT1      1105     TIP3     H1       HT       0.417000        1.0080           0
      4101 WT1      1105     TIP3     H2       HT       0.417000        1.0080           0
      4102 WT1      1106     TIP3     OH2      OT      -0.834000       15.9994           0
      4103 WT1      1106     TIP3     H1       HT       0.417000        1.0080           0
      4104 WT1      1106     TIP3     H2       HT       0.417000        1.0080           0
      4105 WT1      1107     TIP3     OH2      OT      -0.834000       15.9994           0
      4106 WT1      1107     TIP3     H1       HT       0.417000        1.0080           0
      4107 WT1      1107     TIP3     H2       HT       0.417000        1.0080           0
      4108 WT1      1108     TIP3     OH2      OT      -0.834000       15.9994           0
      4109 WT1      1108     TIP3     H1       HT       0.417000        1.0080           0
      4110 WT1      1108     TIP3     H2       HT       0.417000        1.0080           0
      4111 WT1      1109     TIP3     OH2      OT      -0.834000       15.9994           0
      4112 WT1      1109     TIP3     H1       HT       0.417000        1.0080           0
      4113 WT1      1109     TIP3     H2       HT       0.417000        1.0080           0
      4114 WT1      1110     TIP3     OH2      OT      -0.834000       15.9994           0
      4115 WT1      1110     TIP3     H1       HT       0.417000        1.0080           0
      4116 WT1      1110     TIP3     H2       HT       0.417000        1.0080           0
      4117 WT1      1111     TIP3     OH2      OT      -0.834000       15.9994           0
      4118 WT1      1111     TIP3     H1       HT       0.417000        1.0080           0
      4119 WT1      1111     TIP3     H2       HT       0.417000        1.0080           0
      4120 WT1      1112     TIP3     OH2      OT      -0.834000       15.9994           0
      4121 WT1      1112     TIP3     H1       HT       0.417000        1.0080           0
      4122 WT1      1112     TIP3     H2       HT       0.417000        1.0080           0
      4123 WT1      1113     TIP3     OH2      OT      -0.834000       15.9994           0
      4124 WT1      1113     TIP3     H1       HT       0.417000        1.0080           0
      4125 WT1      1113     TIP3     H2       HT       0.417000        1.0080           0
      4126 WT1      1114     TIP3     OH2      OT      -0.834000       15.9994           0
      4127 WT1      1114     TIP3     H1       HT       0.417000        1.0080           0
      4128 WT1      1114     TIP3     H2       HT       0.417000        1.0080           0
      4129 WT1      1115     TIP3     OH2      OT      -0.834000       15.9994           0
      4130 WT1      1115     TIP3     H1       HT       0.417000        1.0080           0
      4131 WT1      1115     TIP3     H2       HT       0.417000        1.0080           0
      4132 WT1      1116     TIP3     OH2      OT      -0.834000       15.9994           0
      4133 WT1      1116     TIP3     H1       HT       0.417000        1.0080           0
      4134 WT1      1116     TIP3     H2       HT       0.417000        1.0080           0
      4135 WT1      1117     TIP3     OH2      OT      -0.834000       15.9994           0
      4136 WT1      1117     TIP3     H1       HT       0.417000        1.0080           0
      4137 WT1      1117     TIP3     H2       HT       0.417000        1.0080           0
      4138 WT1      1118     TIP3     OH2      OT      -0.834000       15.9994           0
      4139 WT1      1118     TIP3     H1       HT       0.417000        1.0080           0
      4140 WT1      1118     TIP3     H2       HT       0.417000        1.0080           0
      4141 WT1      1119     TIP3     OH2      OT      -0.834000       15.9994           0
      4142 WT1      1119     TIP3     H1       HT       0.417000        1.0080           0
      4143 WT1      1119     TIP3     H2       HT       0.417000        1.0080           0
      4144 WT1      1120     TIP3     OH2      OT      -0.834000       15.9994           0
      4145 WT1      1120     TIP3     H1       HT       0.417000        1.0080           0
      4146 WT1      1120     TIP3     H2       HT       0.417000        1.0080           0
      4147 WT1      1121     TIP3     OH2      OT      -0.834000       15.9994           0
      4148 WT1      1121     TIP3     H1       HT       0.417000        1.0080           0
      4149 WT1      1121     TIP3     H2       HT       0.417000        1.0080           0
      4150 WT1      1122     TIP3     OH2      OT      -0.834000       15.9994           0
      4151 WT1      1122     TIP3     H1       HT       0.417000        1.0080           0
      4152 WT1      1122     TIP3     H2       HT       0.417000        1.0080           0
      4153 WT1      1123     TIP3     OH2      OT      -0.834000       15.9994           0
      4154 WT1      1123     TIP3     H1       HT       0.417000        1.0080           0
      4155 WT1      1123     TIP3     H2       HT       0.417000        1.0080           0
      4156 WT1      1124     TIP3     OH2      OT      -0.834000       15.9994           0
      4157 WT1      1124     TIP3     H1       HT       0.417000        1.0080           0
      4158 WT1      1124     TIP3     H2       HT       0.417000        1.0080           0
      4159 WT1      1125     TIP3     OH2      OT      -0.834000       15.9994           0
      4160 WT1      1125     TIP3     H1       HT       0.417000        1.0080           0
      4161 WT1      1125     TIP3     H2       HT       0.417000        1.0080           0
      4162 WT1      1126     TIP3     OH2      OT      -0.834000       15.9994           0
      4163 WT1      1126     TIP3     H1       HT       0.417000        1.0080           0
      4164 WT1      1126     TIP3     H2       HT       0.417000        1.0080           0
      4165 WT1      1127     TIP3     OH2      OT      -0.834000       15.9994           0
      4166 WT1      1127     TIP3     H1       HT       0.417000        1.0080           0
      4167 WT1      1127     TIP3     H2       HT       0.417000        1.0080           0
      4168 WT1      1128     TIP3     OH2      OT      -0.834000       15.9994           0
      4169 WT1      1128     TIP3     H1       HT       0.417000        1.0080           0
      4170 WT1      1128     TIP3     H2       HT       0.417000        1.0080           0
      4171 WT1      1129     TIP3     OH2      OT      -0.834000       15.9994           0
      4172 WT1      1129     TIP3     H1       HT       0.417000        1.0080           0
      4173 WT1      1129     TIP3     H2       HT       0.417000        1.0080           0
      4174 WT1      1130     TIP3     OH2      OT      -0.834000       15.9994           0
      4175 WT1      1130     TIP3     H1       HT       0.417000        1.0080           0
      4176 WT1      1130     TIP3     H2       HT       0.417000        1.0080           0
      4177 WT1      1131     TIP3     OH2      OT      -0.834000       15.9994           0
      4178 WT1      1131     TIP3     H1       HT       0.417000        1.0080           0
      4179 WT1      1131     TIP3     H2       HT       0.417000        1.0080           0
      4180 WT1      1132     TIP3     OH2      OT      -0.834000       15.9994           0
      4181 WT1      1132     TIP3     H1       HT       0.417000        1.0080           0
      4182 WT1      1132     TIP3     H2       HT       0.417000        1.0080           0
      4183 WT1      1133     TIP3     OH2      OT      -0.834000       15.9994           0
      4184 WT1      1133     TIP3     H1       HT       0.417000        1.0080           0
      4185 WT1      1133     TIP3     H2       HT       0.417000        1.0080           0
      4186 WT1      1134     TIP3     OH2      OT      -0.834000       15.9994           0
      4187 WT1      1134     TIP3     H1       HT       0.417000        1.0080           0
      4188 WT1      1134     TIP3     H2       HT       0.417000        1.0080           0
      4189 WT1      1135     TIP3     OH2      OT      -0.834000       15.9994           0
      4190 WT1      1135     TIP3     H1       HT       0.417000        1.0080           0
      4191 WT1      1135     TIP3     H2       HT       0.417000        1.0080           0
      4192 WT1      1136     TIP3     OH2      OT      -0.834000       15.9994           0
      4193 WT1      1136     TIP3     H1       HT       0.417000        1.0080           0
      4194 WT1      1136     TIP3     H2       HT       0.417000        1.0080           0
      4195 WT1      1137     TIP3     OH2      OT      -0.834000       15.9994           0
      4196 WT1      1137     TIP3     H1       HT       0.417000        1.0080           0
      4197 WT1      1137     TIP3     H2       HT       0.417000        1.0080           0
      4198 WT1      1139     TIP3     OH2      OT      -0.834000       15.9994           0
      4199 WT1      1139     TIP3     H1       HT       0.417000        1.0080           0
      4200 WT1      1139     TIP3     H2       HT       0.417000        1.0080           0
      4201 WT1      1140     TIP3     OH2      OT      -0.834000       15.9994           0
      4202 WT1      1140     TIP3     H1       HT       0.417000        1.0080           0
      4203 WT1      1140     TIP3     H2       HT       0.417000        1.0080           0
      4204 WT1      1141     TIP3     OH2      OT      -0.834000       15.9994           0
      4205 WT1      1141     TIP3     H1       HT       0.417000        1.0080           0
      4206 WT1      1141     TIP3     H2       HT       0.417000        1.0080           0
      4207 WT1      1142     TIP3     OH2      OT      -0.834000       15.9994           0
      4208 WT1      1142     TIP3     H1       HT       0.417000        1.0080           0
      4209 WT1      1142     TIP3     H2       HT       0.417000        1.0080           0
      4210 WT1      1143     TIP3     OH2      OT      -0.834000       15.9994           0
      4211 WT1      1143     TIP3     H1       HT       0.417000        1.0080           0
      4212 WT1      1143     TIP3     H2       HT       0.417000        1.0080           0
      4213 WT1      1144     TIP3     OH2      OT      -0.834000       15.9994           0
      4214 WT1      1144     TIP3     H1       HT       0.417000        1.0080           0
      4215 WT1      1144     TIP3     H2       HT       0.417000        1.0080           0
      4216 WT1      1145     TIP3     OH2      OT      -0.834000       15.9994           0
      4217 WT1      1145     TIP3     H1       HT       0.417000        1.0080           0
      4218 WT1      1145     TIP3     H2       HT       0.417000        1.0080           0
      4219 WT1      1146     TIP3     OH2      OT      -0.834000       15.9994           0
      4220 WT1      1146     TIP3     H1       HT       0.417000        1.0080           0
      4221 WT1      1146     TIP3     H2       HT       0.417000        1.0080           0
      4222 WT1      1147     TIP3     OH2      OT      -0.834000       15.9994           0
      4223 WT1      1147     TIP3     H1       HT       0.417000        1.0080           0
      4224 WT1      1147     TIP3     H2       HT       0.417000        1.0080           0
      4225 WT1      1148     TIP3     OH2      OT      -0.834000       15.9994           0
      4226 WT1      1148     TIP3     H1       HT       0.417000        1.0080           0
      4227 WT1      1148     TIP3     H2       HT       0.417000        1.0080           0
      4228 WT1      1149     TIP3     OH2      OT      -0.834000       15.9994           0
      4229 WT1      1149     TIP3     H1       HT       0.417000        1.0080           0
      4230 WT1      1149     TIP3     H2       HT       0.417000        1.0080           0
      4231 WT1      1151     TIP3     OH2      OT      -0.834000       15.9994           0
      4232 WT1      1151     TIP3     H1       HT       0.417000        1.0080           0
      4233 WT1      1151     TIP3     H2       HT       0.417000        1.0080           0
      4234 WT1      1152     TIP3     OH2      OT      -0.834000       15.9994           0
      4235 WT1      1152     TIP3     H1       HT       0.417000        1.0080           0
      4236 WT1      1152     TIP3     H2       HT       0.417000        1.0080           0
      4237 WT1      1153     TIP3     OH2      OT      -0.834000       15.9994           0
      4238 WT1      1153     TIP3     H1       HT       0.417000        1.0080           0
      4239 WT1      1153     TIP3     H2       HT       0.417000        1.0080           0
      4240 WT1      1154     TIP3     OH2      OT      -0.834000       15.9994           0
      4241 WT1      1154     TIP3     H1       HT       0.417000        1.0080           0
      4242 WT1      1154     TIP3     H2       HT       0.417000        1.0080           0
      4243 WT1      1155     TIP3     OH2      OT      -0.834000       15.9994           0
      4244 WT1      1155     TIP3     H1       HT       0.417000        1.0080           0
      4245 WT1      1155     TIP3     H2       HT       0.417000        1.0080           0
      4246 WT1      1156     TIP3     OH2      OT      -0.834000       15.9994           0
      4247 WT1      1156     TIP3     H1       HT       0.417000        1.0080           0
      4248 WT1      1156     TIP3     H2       HT       0.417000        1.0080           0
      4249 WT1      1157     TIP3     OH2      OT      -0.834000       15.9994           0
      4250 WT1      1157     TIP3     H1       HT       0.417000        1.0080           0
      4251 WT1      1157     TIP3     H2       HT       0.417000        1.0080           0
      4252 WT1      1158     TIP3     OH2      OT      -0.834000       15.9994           0
      4253 WT1      1158     TIP3     H1       HT       0.417000        1.0080           0
      4254 WT1      1158     TIP3     H2       HT       0.417000        1.0080           0
      4255 WT1      1159     TIP3     OH2      OT      -0.834000       15.9994           0
      4256 WT1      1159     TIP3     H1       HT       0.417000        1.0080           0
      4257 WT1      1159     TIP3     H2       HT       0.417000        1.0080           0
      4258 WT1      1160     TIP3     OH2      OT      -0.834000       15.9994           0
      4259 WT1      1160     TIP3     H1       HT       0.417000        1.0080           0
      4260 WT1      1160     TIP3     H2       HT       0.417000        1.0080           0
      4261 WT1      1161     TIP3     OH2      OT      -0.834000       15.9994           0
      4262 WT1      1161     TIP3     H1       HT       0.417000        1.0080           0
      4263 WT1      1161     TIP3     H2       HT       0.417000        1.0080           0
      4264 WT1      1162     TIP3     OH2      OT      -0.834000       15.9994           0
      4265 WT1      1162     TIP3     H1       HT       0.417000        1.0080           0
      4266 WT1      1162     TIP3     H2       HT       0.417000        1.0080           0
      4267 WT1      1163     TIP3     OH2      OT      -0.834000       15.9994           0
      4268 WT1      1163     TIP3     H1       HT       0.417000        1.0080           0
      4269 WT1      1163     TIP3     H2       HT       0.417000        1.0080           0
      4270 WT1      1164     TIP3     OH2      OT      -0.834000       15.9994           0
      4271 WT1      1164     TIP3     H1       HT       0.417000        1.0080           0
      4272 WT1      1164     TIP3     H2       HT       0.417000        1.0080           0
      4273 WT1      1165     TIP3     OH2      OT      -0.834000       15.9994           0
      4274 WT1      1165     TIP3     H1       HT       0.417000        1.0080           0
      4275 WT1      1165     TIP3     H2       HT       0.417000        1.0080           0
      4276 WT1      1166     TIP3     OH2      OT      -0.834000       15.9994           0
      4277 WT1      1166     TIP3     H1       HT       0.417000        1.0080           0
      4278 WT1      1166     TIP3     H2       HT       0.417000        1.0080           0
      4279 WT1      1167     TIP3     OH2      OT      -0.834000       15.9994           0
      4280 WT1      1167     TIP3     H1       HT       0.417000        1.0080           0
      4281 WT1      1167     TIP3     H2       HT       0.417000        1.0080           0
      4282 WT1      1168     TIP3     OH2      OT      -0.834000       15.9994           0
      4283 WT1      1168     TIP3     H1       HT       0.417000        1.0080           0
      4284 WT1      1168     TIP3     H2       HT       0.417000        1.0080           0
      4285 WT1      1169     TIP3     OH2      OT      -0.834000       15.9994           0
      4286 WT1      1169     TIP3     H1       HT       0.417000        1.0080           0
      4287 WT1      1169     TIP3     H2       HT       0.417000        1.0080           0
      4288 WT1      1170     TIP3     OH2      OT      -0.834000       15.9994           0
      4289 WT1      1170     TIP3     H1       HT       0.417000        1.0080           0
      4290 WT1      1170     TIP3     H2       HT       0.417000        1.0080           0
      4291 WT1      1171     TIP3     OH2      OT      -0.834000       15.9994           0
      4292 WT1      1171     TIP3     H1       HT       0.417000        1.0080           0
      4293 WT1      1171     TIP3     H2       HT       0.417000        1.0080           0
      4294 WT1      1172     TIP3     OH2      OT      -0.834000       15.9994           0
      4295 WT1      1172     TIP3     H1       HT       0.417000        1.0080           0
      4296 WT1      1172     TIP3     H2       HT       0.417000        1.0080           0
      4297 WT1      1173     TIP3     OH2      OT      -0.834000       15.9994           0
      4298 WT1      1173     TIP3     H1       HT       0.417000        1.0080           0
      4299 WT1      1173     TIP3     H2       HT       0.417000        1.0080           0
      4300 WT1      1174     TIP3     OH2      OT      -0.834000       15.9994           0
      4301 WT1      1174     TIP3     H1       HT       0.417000        1.0080           0
      4302 WT1      1174     TIP3     H2       HT       0.417000        1.0080           0
      4303 WT1      1175     TIP3     OH2      OT      -0.834000       15.9994           0
      4304 WT1      1175     TIP3     H1       HT       0.417000        1.0080           0
      4305 WT1      1175     TIP3     H2       HT       0.417000        1.0080           0
      4306 WT1      1176     TIP3     OH2      OT      -0.834000       15.9994           0
      4307 WT1      1176     TIP3     H1       HT       0.417000        1.0080           0
      4308 WT1      1176     TIP3     H2       HT       0.417000        1.0080           0
      4309 WT1      1177     TIP3     OH2      OT      -0.834000       15.9994           0
      4310 WT1      1177     TIP3     H1       HT       0.417000        1.0080           0
      4311 WT1      1177     TIP3     H2       HT       0.417000        1.0080           0
      4312 WT1      1178     TIP3     OH2      OT      -0.834000       15.9994           0
      4313 WT1      1178     TIP3     H1       HT       0.417000        1.0080           0
      4314 WT1      1178     TIP3     H2       HT       0.417000        1.0080           0
      4315 WT1      1179     TIP3     OH2      OT      -0.834000       15.9994           0
      4316 WT1      1179     TIP3     H1       HT       0.417000        1.0080           0
      4317 WT1      1179     TIP3     H2       HT       0.417000        1.0080           0
      4318 WT1      1180     TIP3     OH2      OT      -0.834000       15.9994           0
      4319 WT1      1180     TIP3     H1       HT       0.417000        1.0080           0
      4320 WT1      1180     TIP3     H2       HT       0.417000        1.0080           0
      4321 WT1      1181     TIP3     OH2      OT      -0.834000       15.9994           0
      4322 WT1      1181     TIP3     H1       HT       0.417000        1.0080           0
      4323 WT1      1181     TIP3     H2       HT       0.417000        1.0080           0
      4324 WT1      1182     TIP3     OH2      OT      -0.834000       15.9994           0
      4325 WT1      1182     TIP3     H1       HT       0.417000        1.0080           0
      4326 WT1      1182     TIP3     H2       HT       0.417000        1.0080           0
      4327 WT1      1183     TIP3     OH2      OT      -0.834000       15.9994           0
      4328 WT1      1183     TIP3     H1       HT       0.417000        1.0080           0
      4329 WT1      1183     TIP3     H2       HT       0.417000        1.0080           0
      4330 WT1      1184     TIP3     OH2      OT      -0.834000       15.9994           0
      4331 WT1      1184     TIP3     H1       HT       0.417000        1.0080           0
      4332 WT1      1184     TIP3     H2       HT       0.417000        1.0080           0
      4333 WT1      1185     TIP3     OH2      OT      -0.834000       15.9994           0
      4334 WT1      1185     TIP3     H1       HT       0.417000        1.0080           0
      4335 WT1      1185     TIP3     H2       HT       0.417000        1.0080           0
      4336 WT1      1186     TIP3     OH2      OT      -0.834000       15.9994           0
      4337 WT1      1186     TIP3     H1       HT       0.417000        1.0080           0
      4338 WT1      1186     TIP3     H2       HT       0.417000        1.0080           0
      4339 WT1      1187     TIP3     OH2      OT      -0.834000       15.9994           0
      4340 WT1      1187     TIP3     H1       HT       0.417000        1.0080           0
      4341 WT1      1187     TIP3     H2       HT       0.417000        1.0080           0
      4342 WT1      1188     TIP3     OH2      OT      -0.834000       15.9994           0
      4343 WT1      1188     TIP3     H1       HT       0.417000        1.0080           0
      4344 WT1      1188     TIP3     H2       HT       0.417000        1.0080           0
      4345 WT1      1189     TIP3     OH2      OT      -0.834000       15.9994           0
      4346 WT1      1189     TIP3     H1       HT       0.417000        1.0080           0
      4347 WT1      1189     TIP3     H2       HT       0.417000        1.0080           0
      4348 WT1      1190     TIP3     OH2      OT      -0.834000       15.9994           0
      4349 WT1      1190     TIP3     H1       HT       0.417000        1.0080           0
      4350 WT1      1190     TIP3     H2       HT       0.417000        1.0080           0
      4351 WT1      1191     TIP3     OH2      OT      -0.834000       15.9994           0
      4352 WT1      1191     TIP3     H1       HT       0.417000        1.0080           0
      4353 WT1      1191     TIP3     H2       HT       0.417000        1.0080           0
      4354 WT1      1192     TIP3     OH2      OT      -0.834000       15.9994           0
      4355 WT1      1192     TIP3     H1       HT       0.417000        1.0080           0
      4356 WT1      1192     TIP3     H2       HT       0.417000        1.0080           0
      4357 WT1      1193     TIP3     OH2      OT      -0.834000       15.9994           0
      4358 WT1      1193     TIP3     H1       HT       0.417000        1.0080           0
      4359 WT1      1193     TIP3     H2       HT       0.417000        1.0080           0
      4360 WT1      1194     TIP3     OH2      OT      -0.834000       15.9994           0
      4361 WT1      1194     TIP3     H1       HT       0.417000        1.0080           0
      4362 WT1      1194     TIP3     H2       HT       0.417000        1.0080           0
      4363 WT1      1195     TIP3     OH2      OT      -0.834000       15.9994           0
      4364 WT1      1195     TIP3     H1       HT       0.417000        1.0080           0
      4365 WT1      1195     TIP3     H2       HT       0.417000        1.0080           0
      4366 WT1      1196     TIP3     OH2      OT      -0.834000       15.9994           0
      4367 WT1      1196     TIP3     H1       HT       0.417000        1.0080           0
      4368 WT1      1196     TIP3     H2       HT       0.417000        1.0080           0
      4369 WT1      1197     TIP3     OH2      OT      -0.834000       15.9994           0
      4370 WT1      1197     TIP3     H1       HT       0.417000        1.0080           0
      4371 WT1      1197     TIP3     H2       HT       0.417000        1.0080           0
      4372 WT1      1198     TIP3     OH2      OT      -0.834000       15.9994           0
      4373 WT1      1198     TIP3     H1       HT       0.417000        1.0080           0
      4374 WT1      1198     TIP3     H2       HT       0.417000        1.0080           0
      4375 WT1      1199     TIP3     OH2      OT      -0.834000       15.9994           0
      4376 WT1      1199     TIP3     H1       HT       0.417000        1.0080           0
      4377 WT1      1199     TIP3     H2       HT       0.417000        1.0080           0
      4378 WT1      1200     TIP3     OH2      OT      -0.834000       15.9994           0
      4379 WT1      1200     TIP3     H1       HT       0.417000        1.0080           0
      4380 WT1      1200     TIP3     H2       HT       0.417000        1.0080           0
      4381 WT1      1201     TIP3     OH2      OT      -0.834000       15.9994           0
      4382 WT1      1201     TIP3     H1       HT       0.417000        1.0080           0
      4383 WT1      1201     TIP3     H2       HT       0.417000        1.0080           0
      4384 WT1      1202     TIP3     OH2      OT      -0.834000       15.9994           0
      4385 WT1      1202     TIP3     H1       HT       0.417000        1.0080           0
      4386 WT1      1202     TIP3     H2       HT       0.417000        1.0080           0
      4387 WT1      1203     TIP3     OH2      OT      -0.834000       15.9994           0
      4388 WT1      1203     TIP3     H1       HT       0.417000        1.0080           0
      4389 WT1      1203     TIP3     H2       HT       0.417000        1.0080           0
      4390 WT1      1204     TIP3     OH2      OT      -0.834000       15.9994           0
      4391 WT1      1204     TIP3     H1       HT       0.417000        1.0080           0
      4392 WT1      1204     TIP3     H2       HT       0.417000        1.0080           0
      4393 WT1      1205     TIP3     OH2      OT      -0.834000       15.9994           0
      4394 WT1      1205     TIP3     H1       HT       0.417000        1.0080           0
      4395 WT1      1205     TIP3     H2       HT       0.417000        1.0080           0
      4396 WT1      1206     TIP3     OH2      OT      -0.834000       15.9994           0
      4397 WT1      1206     TIP3     H1       HT       0.417000        1.0080           0
      4398 WT1      1206     TIP3     H2       HT       0.417000        1.0080           0
      4399 WT1      1207     TIP3     OH2      OT      -0.834000       15.9994           0
      4400 WT1      1207     TIP3     H1       HT       0.417000        1.0080           0
      4401 WT1      1207     TIP3     H2       HT       0.417000        1.0080           0
      4402 WT1      1208     TIP3     OH2      OT      -0.834000       15.9994           0
      4403 WT1      1208     TIP3     H1       HT       0.417000        1.0080           0
      4404 WT1      1208     TIP3     H2       HT       0.417000        1.0080           0
      4405 WT1      1209     TIP3     OH2      OT      -0.834000       15.9994           0
      4406 WT1      1209     TIP3     H1       HT       0.417000        1.0080           0
      4407 WT1      1209     TIP3     H2       HT       0.417000        1.0080           0
      4408 WT1      1210     TIP3     OH2      OT      -0.834000       15.9994           0
      4409 WT1      1210     TIP3     H1       HT       0.417000        1.0080           0
      4410 WT1      1210     TIP3     H2       HT       0.417000        1.0080           0
      4411 WT1      1211     TIP3     OH2      OT      -0.834000       15.9994           0
      4412 WT1      1211     TIP3     H1       HT       0.417000        1.0080           0
      4413 WT1      1211     TIP3     H2       HT       0.417000        1.0080           0
      4414 WT1      1212     TIP3     OH2      OT      -0.834000       15.9994           0
      4415 WT1      1212     TIP3     H1       HT       0.417000        1.0080           0
      4416 WT1      1212     TIP3     H2       HT       0.417000        1.0080           0
      4417 WT1      1213     TIP3     OH2      OT      -0.834000       15.9994           0
      4418 WT1      1213     TIP3     H1       HT       0.417000        1.0080           0
      4419 WT1      1213     TIP3     H2       HT       0.417000        1.0080           0
      4420 WT1      1214     TIP3     OH2      OT      -0.834000       15.9994           0
      4421 WT1      1214     TIP3     H1       HT       0.417000        1.0080           0
      4422 WT1      1214     TIP3     H2       HT       0.417000        1.0080           0
      4423 WT1      1215     TIP3     OH2      OT      -0.834000       15.9994           0
      4424 WT1      1215     TIP3     H1       HT       0.417000        1.0080           0
      4425 WT1      1215     TIP3     H2       HT       0.417000        1.0080           0
      4426 WT1      1216     TIP3     OH2      OT      -0.834000       15.9994           0
      4427 WT1      1216     TIP3     H1       HT       0.417000        1.0080           0
      4428 WT1      1216     TIP3     H2       HT       0.417000        1.0080           0
      4429 WT1      1217     TIP3     OH2      OT      -0.834000       15.9994           0
      4430 WT1      1217     TIP3     H1       HT       0.417000        1.0080           0
      4431 WT1      1217     TIP3     H2       HT       0.417000        1.0080           0
      4432 WT1      1218     TIP3     OH2      OT      -0.834000       15.9994           0
      4433 WT1      1218     TIP3     H1       HT       0.417000        1.0080           0
      4434 WT1      1218     TIP3     H2       HT       0.417000        1.0080           0
      4435 WT1      1219     TIP3     OH2      OT      -0.834000       15.9994           0
      4436 WT1      1219     TIP3     H1       HT       0.417000        1.0080           0
      4437 WT1      1219     TIP3     H2       HT       0.417000        1.0080           0
      4438 WT1      1220     TIP3     OH2      OT      -0.834000       15.9994           0
      4439 WT1      1220     TIP3     H1       HT       0.417000        1.0080           0
      4440 WT1      1220     TIP3     H2       HT       0.417000        1.0080           0
      4441 WT1      1221     TIP3     OH2      OT      -0.834000       15.9994           0
      4442 WT1      1221     TIP3     H1       HT       0.417000        1.0080           0
      4443 WT1      1221     TIP3     H2       HT       0.417000        1.0080           0
      4444 WT1      1222     TIP3     OH2      OT      -0.834000       15.9994           0
      4445 WT1      1222     TIP3     H1       HT       0.417000        1.0080           0
      4446 WT1      1222     TIP3     H2       HT       0.417000        1.0080           0
      4447 WT1      1223     TIP3     OH2      OT      -0.834000       15.9994           0
      4448 WT1      1223     TIP3     H1       HT       0.417000        1.0080           0
      4449 WT1      1223     TIP3     H2       HT       0.417000        1.0080           0
      4450 WT1      1224     TIP3     OH2      OT      -0.834000       15.9994           0
      4451 WT1      1224     TIP3     H1       HT       0.417000        1.0080           0
      4452 WT1      1224     TIP3     H2       HT       0.417000        1.0080           0
      4453 WT1      1225     TIP3     OH2      OT      -0.834000       15.9994           0
      4454 WT1      1225     TIP3     H1       HT       0.417000        1.0080           0
      4455 WT1      1225     TIP3     H2       HT       0.417000        1.0080           0
      4456 WT1      1226     TIP3     OH2      OT      -0.834000       15.9994           0
      4457 WT1      1226     TIP3     H1       HT       0.417000        1.0080           0
      4458 WT1      1226     TIP3     H2       HT       0.417000        1.0080           0
      4459 WT1      1227     TIP3     OH2      OT      -0.834000       15.9994           0
      4460 WT1      1227     TIP3     H1       HT       0.417000        1.0080           0
      4461 WT1      1227     TIP3     H2       HT       0.417000        1.0080           0
      4462 WT1      1228     TIP3     OH2      OT      -0.834000       15.9994           0
      4463 WT1      1228     TIP3     H1       HT       0.417000        1.0080           0
      4464 WT1      1228     TIP3     H2       HT       0.417000        1.0080           0
      4465 WT1      1229     TIP3     OH2      OT      -0.834000       15.9994           0
      4466 WT1      1229     TIP3     H1       HT       0.417000        1.0080           0
      4467 WT1      1229     TIP3     H2       HT       0.417000        1.0080           0
      4468 WT1      1230     TIP3     OH2      OT      -0.834000       15.9994           0
      4469 WT1      1230     TIP3     H1       HT       0.417000        1.0080           0
      4470 WT1      1230     TIP3     H2       HT       0.417000        1.0080           0
      4471 WT1      1231     TIP3     OH2      OT      -0.834000       15.9994           0
      4472 WT1      1231     TIP3     H1       HT       0.417000        1.0080           0
      4473 WT1      1231     TIP3     H2       HT       0.417000        1.0080           0
      4474 WT1      1232     TIP3     OH2      OT      -0.834000       15.9994           0
      4475 WT1      1232     TIP3     H1       HT       0.417000        1.0080           0
      4476 WT1      1232     TIP3     H2       HT       0.417000        1.0080           0
      4477 WT1      1233     TIP3     OH2      OT      -0.834000       15.9994           0
      4478 WT1      1233     TIP3     H1       HT       0.417000        1.0080           0
      4479 WT1      1233     TIP3     H2       HT       0.417000        1.0080           0
      4480 WT1      1234     TIP3     OH2      OT      -0.834000       15.9994           0
      4481 WT1      1234     TIP3     H1       HT       0.417000        1.0080           0
      4482 WT1      1234     TIP3     H2       HT       0.417000        1.0080           0
      4483 WT1      1235     TIP3     OH2      OT      -0.834000       15.9994           0
      4484 WT1      1235     TIP3     H1       HT       0.417000        1.0080           0
      4485 WT1      1235     TIP3     H2       HT       0.417000        1.0080           0
      4486 WT1      1236     TIP3     OH2      OT      -0.834000       15.9994           0
      4487 WT1      1236     TIP3     H1       HT       0.417000        1.0080           0
      4488 WT1      1236     TIP3     H2       HT       0.417000        1.0080           0
      4489 WT1      1237     TIP3     OH2      OT      -0.834000       15.9994           0
      4490 WT1      1237     TIP3     H1       HT       0.417000        1.0080           0
      4491 WT1      1237     TIP3     H2       HT       0.417000        1.0080           0
      4492 WT1      1238     TIP3     OH2      OT      -0.834000       15.9994           0
      4493 WT1      1238     TIP3     H1       HT       0.417000        1.0080           0
      4494 WT1      1238     TIP3     H2       HT       0.417000        1.0080           0
      4495 WT1      1239     TIP3     OH2      OT      -0.834000       15.9994           0
      4496 WT1      1239     TIP3     H1       HT       0.417000        1.0080           0
      4497 WT1      1239     TIP3     H2       HT       0.417000        1.0080           0
      4498 WT1      1240     TIP3     OH2      OT      -0.834000       15.9994           0
      4499 WT1      1240     TIP3     H1       HT       0.417000        1.0080           0
      4500 WT1      1240     TIP3     H2       HT       0.417000        1.0080           0
      4501 WT1      1242     TIP3     OH2      OT      -0.834000       15.9994           0
      4502 WT1      1242     TIP3     H1       HT       0.417000        1.0080           0
      4503 WT1      1242     TIP3     H2       HT       0.417000        1.0080           0
      4504 WT1      1243     TIP3     OH2      OT      -0.834000       15.9994           0
      4505 WT1      1243     TIP3     H1       HT       0.417000        1.0080           0
      4506 WT1      1243     TIP3     H2       HT       0.417000        1.0080           0
      4507 WT1      1244     TIP3     OH2      OT      -0.834000       15.9994           0
      4508 WT1      1244     TIP3     H1       HT       0.417000        1.0080           0
      4509 WT1      1244     TIP3     H2       HT       0.417000        1.0080           0
      4510 WT1      1245     TIP3     OH2      OT      -0.834000       15.9994           0
      4511 WT1      1245     TIP3     H1       HT       0.417000        1.0080           0
      4512 WT1      1245     TIP3     H2       HT       0.417000        1.0080           0
      4513 WT1      1246     TIP3     OH2      OT      -0.834000       15.9994           0
      4514 WT1      1246     TIP3     H1       HT       0.417000        1.0080           0
      4515 WT1      1246     TIP3     H2       HT       0.417000        1.0080           0
      4516 WT1      1247     TIP3     OH2      OT      -0.834000       15.9994           0
      4517 WT1      1247     TIP3     H1       HT       0.417000        1.0080           0
      4518 WT1      1247     TIP3     H2       HT       0.417000        1.0080           0
      4519 WT1      1248     TIP3     OH2      OT      -0.834000       15.9994           0
      4520 WT1      1248     TIP3     H1       HT       0.417000        1.0080           0
      4521 WT1      1248     TIP3     H2       HT       0.417000        1.0080           0
      4522 WT1      1249     TIP3     OH2      OT      -0.834000       15.9994           0
      4523 WT1      1249     TIP3     H1       HT       0.417000        1.0080           0
      4524 WT1      1249     TIP3     H2       HT       0.417000        1.0080           0
      4525 WT1      1250     TIP3     OH2      OT      -0.834000       15.9994           0
      4526 WT1      1250     TIP3     H1       HT       0.417000        1.0080           0
      4527 WT1      1250     TIP3     H2       HT       0.417000        1.0080           0
      4528 WT1      1251     TIP3     OH2      OT      -0.834000       15.9994           0
      4529 WT1      1251     TIP3     H1       HT       0.417000        1.0080           0
      4530 WT1      1251     TIP3     H2       HT       0.417000        1.0080           0
      4531 WT1      1253     TIP3     OH2      OT      -0.834000       15.9994           0
      4532 WT1      1253     TIP3     H1       HT       0.417000        1.0080           0
      4533 WT1      1253     TIP3     H2       HT       0.417000        1.0080           0
      4534 WT1      1254     TIP3     OH2      OT      -0.834000       15.9994           0
      4535 WT1      1254     TIP3     H1       HT       0.417000        1.0080           0
      4536 WT1      1254     TIP3     H2       HT       0.417000        1.0080           0
      4537 WT1      1255     TIP3     OH2      OT      -0.834000       15.9994           0
      4538 WT1      1255     TIP3     H1       HT       0.417000        1.0080           0
      4539 WT1      1255     TIP3     H2       HT       0.417000        1.0080           0
      4540 WT1      1256     TIP3     OH2      OT      -0.834000       15.9994           0
      4541 WT1      1256     TIP3     H1       HT       0.417000        1.0080           0
      4542 WT1      1256     TIP3     H2       HT       0.417000        1.0080           0
      4543 WT1      1258     TIP3     OH2      OT      -0.834000       15.9994           0
      4544 WT1      1258     TIP3     H1       HT       0.417000        1.0080           0
      4545 WT1      1258     TIP3     H2       HT       0.417000        1.0080           0
      4546 WT1      1259     TIP3     OH2      OT      -0.834000       15.9994           0
      4547 WT1      1259     TIP3     H1       HT       0.417000        1.0080           0
      4548 WT1      1259     TIP3     H2       HT       0.417000        1.0080           0
      4549 WT1      1260     TIP3     OH2      OT      -0.834000       15.9994           0
      4550 WT1      1260     TIP3     H1       HT       0.417000        1.0080           0
      4551 WT1      1260     TIP3     H2       HT       0.417000        1.0080           0
      4552 WT1      1261     TIP3     OH2      OT      -0.834000       15.9994           0
      4553 WT1      1261     TIP3     H1       HT       0.417000        1.0080           0
      4554 WT1      1261     TIP3     H2       HT       0.417000        1.0080           0
      4555 WT1      1262     TIP3     OH2      OT      -0.834000       15.9994           0
      4556 WT1      1262     TIP3     H1       HT       0.417000        1.0080           0
      4557 WT1      1262     TIP3     H2       HT       0.417000        1.0080           0
      4558 WT1      1263     TIP3     OH2      OT      -0.834000       15.9994           0
      4559 WT1      1263     TIP3     H1       HT       0.417000        1.0080           0
      4560 WT1      1263     TIP3     H2       HT       0.417000        1.0080           0
      4561 WT1      1264     TIP3     OH2      OT      -0.834000       15.9994           0
      4562 WT1      1264     TIP3     H1       HT       0.417000        1.0080           0
      4563 WT1      1264     TIP3     H2       HT       0.417000        1.0080           0
      4564 WT1      1265     TIP3     OH2      OT      -0.834000       15.9994           0
      4565 WT1      1265     TIP3     H1       HT       0.417000        1.0080           0
      4566 WT1      1265     TIP3     H2       HT       0.417000        1.0080           0
      4567 WT1      1266     TIP3     OH2      OT      -0.834000       15.9994           0
      4568 WT1      1266     TIP3     H1       HT       0.417000        1.0080           0
      4569 WT1      1266     TIP3     H2       HT       0.417000        1.0080           0
      4570 WT1      1267     TIP3     OH2      OT      -0.834000       15.9994           0
      4571 WT1      1267     TIP3     H1       HT       0.417000        1.0080           0
      4572 WT1      1267     TIP3     H2       HT       0.417000        1.0080           0
      4573 WT1      1268     TIP3     OH2      OT      -0.834000       15.9994           0
      4574 WT1      1268     TIP3     H1       HT       0.417000        1.0080           0
      4575 WT1      1268     TIP3     H2       HT       0.417000        1.0080           0
      4576 WT1      1269     TIP3     OH2      OT      -0.834000       15.9994           0
      4577 WT1      1269     TIP3     H1       HT       0.417000        1.0080           0
      4578 WT1      1269     TIP3     H2       HT       0.417000        1.0080           0
      4579 WT1      1270     TIP3     OH2      OT      -0.834000       15.9994           0
      4580 WT1      1270     TIP3     H1       HT       0.417000        1.0080           0
      4581 WT1      1270     TIP3     H2       HT       0.417000        1.0080           0
      4582 WT1      1271     TIP3     OH2      OT      -0.834000       15.9994           0
      4583 WT1      1271     TIP3     H1       HT       0.417000        1.0080           0
      4584 WT1      1271     TIP3     H2       HT       0.417000        1.0080           0
      4585 WT1      1272     TIP3     OH2      OT      -0.834000       15.9994           0
      4586 WT1      1272     TIP3     H1       HT       0.417000        1.0080           0
      4587 WT1      1272     TIP3     H2       HT       0.417000        1.0080           0
      4588 WT1      1273     TIP3     OH2      OT      -0.834000       15.9994           0
      4589 WT1      1273     TIP3     H1       HT       0.417000        1.0080           0
      4590 WT1      1273     TIP3     H2       HT       0.417000        1.0080           0
      4591 WT1      1274     TIP3     OH2      OT      -0.834000       15.9994           0
      4592 WT1      1274     TIP3     H1       HT       0.417000        1.0080           0
      4593 WT1      1274     TIP3     H2       HT       0.417000        1.0080           0
      4594 WT1      1275     TIP3     OH2      OT      -0.834000       15.9994           0
      4595 WT1      1275     TIP3     H1       HT       0.417000        1.0080           0
      4596 WT1      1275     TIP3     H2       HT       0.417000        1.0080           0
      4597 WT1      1276     TIP3     OH2      OT      -0.834000       15.9994           0
      4598 WT1      1276     TIP3     H1       HT       0.417000        1.0080           0
      4599 WT1      1276     TIP3     H2       HT       0.417000        1.0080           0
      4600 WT1      1277     TIP3     OH2      OT      -0.834000       15.9994           0
      4601 WT1      1277     TIP3     H1       HT       0.417000        1.0080           0
      4602 WT1      1277     TIP3     H2       HT       0.417000        1.0080           0
      4603 WT1      1278     TIP3     OH2      OT      -0.834000       15.9994           0
      4604 WT1      1278     TIP3     H1       HT       0.417000        1.0080           0
      4605 WT1      1278     TIP3     H2       HT       0.417000        1.0080           0
      4606 WT1      1279     TIP3     OH2      OT      -0.834000       15.9994           0
      4607 WT1      1279     TIP3     H1       HT       0.417000        1.0080           0
      4608 WT1      1279     TIP3     H2       HT       0.417000        1.0080           0
      4609 WT1      1280     TIP3     OH2      OT      -0.834000       15.9994           0
      4610 WT1      1280     TIP3     H1       HT       0.417000        1.0080           0
      4611 WT1      1280     TIP3     H2       HT       0.417000        1.0080           0
      4612 WT1      1281     TIP3     OH2      OT      -0.834000       15.9994           0
      4613 WT1      1281     TIP3     H1       HT       0.417000        1.0080           0
      4614 WT1      1281     TIP3     H2       HT       0.417000        1.0080           0
      4615 WT1      1282     TIP3     OH2      OT      -0.834000       15.9994           0
      4616 WT1      1282     TIP3     H1       HT       0.417000        1.0080           0
      4617 WT1      1282     TIP3     H2       HT       0.417000        1.0080           0
      4618 WT1      1283     TIP3     OH2      OT      -0.834000       15.9994           0
      4619 WT1      1283     TIP3     H1       HT       0.417000        1.0080           0
      4620 WT1      1283     TIP3     H2       HT       0.417000        1.0080           0
      4621 WT1      1284     TIP3     OH2      OT      -0.834000       15.9994           0
      4622 WT1      1284     TIP3     H1       HT       0.417000        1.0080           0
      4623 WT1      1284     TIP3     H2       HT       0.417000        1.0080           0
      4624 WT1      1285     TIP3     OH2      OT      -0.834000       15.9994           0
      4625 WT1      1285     TIP3     H1       HT       0.417000        1.0080           0
      4626 WT1      1285     TIP3     H2       HT       0.417000        1.0080           0
      4627 WT1      1286     TIP3     OH2      OT      -0.834000       15.9994           0
      4628 WT1      1286     TIP3     H1       HT       0.417000        1.0080           0
      4629 WT1      1286     TIP3     H2       HT       0.417000        1.0080           0
      4630 WT1      1287     TIP3     OH2      OT      -0.834000       15.9994           0
      4631 WT1      1287     TIP3     H1       HT       0.417000        1.0080           0
      4632 WT1      1287     TIP3     H2       HT       0.417000        1.0080           0
      4633 WT1      1288     TIP3     OH2      OT      -0.834000       15.9994           0
      4634 WT1      1288     TIP3     H1       HT       0.417000        1.0080           0
      4635 WT1      1288     TIP3     H2       HT       0.417000        1.0080           0
      4636 WT1      1289     TIP3     OH2      OT      -0.834000       15.9994           0
      4637 WT1      1289     TIP3     H1       HT       0.417000        1.0080           0
      4638 WT1      1289     TIP3     H2       HT       0.417000        1.0080           0
      4639 WT1      1290     TIP3     OH2      OT      -0.834000       15.9994           0
      4640 WT1      1290     TIP3     H1       HT       0.417000        1.0080           0
      4641 WT1      1290     TIP3     H2       HT       0.417000        1.0080           0
      4642 WT1      1291     TIP3     OH2      OT      -0.834000       15.9994           0
      4643 WT1      1291     TIP3     H1       HT       0.417000        1.0080           0
      4644 WT1      1291     TIP3     H2       HT       0.417000        1.0080           0
      4645 WT1      1292     TIP3     OH2      OT      -0.834000       15.9994           0
      4646 WT1      1292     TIP3     H1       HT       0.417000        1.0080           0
      4647 WT1      1292     TIP3     H2       HT       0.417000        1.0080           0
      4648 WT1      1293     TIP3     OH2      OT      -0.834000       15.9994           0
      4649 WT1      1293     TIP3     H1       HT       0.417000        1.0080           0
      4650 WT1      1293     TIP3     H2       HT       0.417000        1.0080           0
      4651 WT1      1294     TIP3     OH2      OT      -0.834000       15.9994           0
      4652 WT1      1294     TIP3     H1       HT       0.417000        1.0080           0
      4653 WT1      1294     TIP3     H2       HT       0.417000        1.0080           0
      4654 WT1      1295     TIP3     OH2      OT      -0.834000       15.9994           0
      4655 WT1      1295     TIP3     H1       HT       0.417000        1.0080           0
      4656 WT1      1295     TIP3     H2       HT       0.417000        1.0080           0
      4657 WT1      1296     TIP3     OH2      OT      -0.834000       15.9994           0
      4658 WT1      1296     TIP3     H1       HT       0.417000        1.0080           0
      4659 WT1      1296     TIP3     H2       HT       0.417000        1.0080           0
      4660 WT1      1297     TIP3     OH2      OT      -0.834000       15.9994           0
      4661 WT1      1297     TIP3     H1       HT       0.417000        1.0080           0
      4662 WT1      1297     TIP3     H2       HT       0.417000        1.0080           0
      4663 WT1      1298     TIP3     OH2      OT      -0.834000       15.9994           0
      4664 WT1      1298     TIP3     H1       HT       0.417000        1.0080           0
      4665 WT1      1298     TIP3     H2       HT       0.417000        1.0080           0
      4666 WT1      1299     TIP3     OH2      OT      -0.834000       15.9994           0
      4667 WT1      1299     TIP3     H1       HT       0.417000        1.0080           0
      4668 WT1      1299     TIP3     H2       HT       0.417000        1.0080           0
      4669 WT1      1300     TIP3     OH2      OT      -0.834000       15.9994           0
      4670 WT1      1300     TIP3     H1       HT       0.417000        1.0080           0
      4671 WT1      1300     TIP3     H2       HT       0.417000        1.0080           0
      4672 WT1      1301     TIP3     OH2      OT      -0.834000       15.9994           0
      4673 WT1      1301     TIP3     H1       HT       0.417000        1.0080           0
      4674 WT1      1301     TIP3     H2       HT       0.417000        1.0080           0
      4675 WT1      1302     TIP3     OH2      OT      -0.834000       15.9994           0
      4676 WT1      1302     TIP3     H1       HT       0.417000        1.0080           0
      4677 WT1      1302     TIP3     H2       HT       0.417000        1.0080           0
      4678 WT1      1303     TIP3     OH2      OT      -0.834000       15.9994           0
      4679 WT1      1303     TIP3     H1       HT       0.417000        1.0080           0
      4680 WT1      1303     TIP3     H2       HT       0.417000        1.0080           0
      4681 WT1      1304     TIP3     OH2      OT      -0.834000       15.9994           0
      4682 WT1      1304     TIP3     H1       HT       0.417000        1.0080           0
      4683 WT1      1304     TIP3     H2       HT       0.417000        1.0080           0
      4684 WT1      1305     TIP3     OH2      OT      -0.834000       15.9994           0
      4685 WT1      1305     TIP3     H1       HT       0.417000        1.0080           0
      4686 WT1      1305     TIP3     H2       HT       0.417000        1.0080           0
      4687 WT1      1306     TIP3     OH2      OT      -0.834000       15.9994           0
      4688 WT1      1306     TIP3     H1       HT       0.417000        1.0080           0
      4689 WT1      1306     TIP3     H2       HT       0.417000        1.0080           0
      4690 WT1      1307     TIP3     OH2      OT      -0.834000       15.9994           0
      4691 WT1      1307     TIP3     H1       HT       0.417000        1.0080           0
      4692 WT1      1307     TIP3     H2       HT       0.417000        1.0080           0
      4693 WT1      1308     TIP3     OH2      OT      -0.834000       15.9994           0
      4694 WT1      1308     TIP3     H1       HT       0.417000        1.0080           0
      4695 WT1      1308     TIP3     H2       HT       0.417000        1.0080           0
      4696 WT1      1309     TIP3     OH2      OT      -0.834000       15.9994           0
      4697 WT1      1309     TIP3     H1       HT       0.417000        1.0080           0
      4698 WT1      1309     TIP3     H2       HT       0.417000        1.0080           0
      4699 WT1      1311     TIP3     OH2      OT      -0.834000       15.9994           0
      4700 WT1      1311     TIP3     H1       HT       0.417000        1.0080           0
      4701 WT1      1311     TIP3     H2       HT       0.417000        1.0080           0
      4702 WT1      1312     TIP3     OH2      OT      -0.834000       15.9994           0
      4703 WT1      1312     TIP3     H1       HT       0.417000        1.0080           0
      4704 WT1      1312     TIP3     H2       HT       0.417000        1.0080           0
      4705 WT1      1313     TIP3     OH2      OT      -0.834000       15.9994           0
      4706 WT1      1313     TIP3     H1       HT       0.417000        1.0080           0
      4707 WT1      1313     TIP3     H2       HT       0.417000        1.0080           0
      4708 WT1      1314     TIP3     OH2      OT      -0.834000       15.9994           0
      4709 WT1      1314     TIP3     H1       HT       0.417000        1.0080           0
      4710 WT1      1314     TIP3     H2       HT       0.417000        1.0080           0
      4711 WT1      1315     TIP3     OH2      OT      -0.834000       15.9994           0
      4712 WT1      1315     TIP3     H1       HT       0.417000        1.0080           0
      4713 WT1      1315     TIP3     H2       HT       0.417000        1.0080           0
      4714 WT1      1316     TIP3     OH2      OT      -0.834000       15.9994           0
      4715 WT1      1316     TIP3     H1       HT       0.417000        1.0080           0
      4716 WT1      1316     TIP3     H2       HT       0.417000        1.0080           0
      4717 WT1      1317     TIP3     OH2      OT      -0.834000       15.9994           0
      4718 WT1      1317     TIP3     H1       HT       0.417000        1.0080           0
      4719 WT1      1317     TIP3     H2       HT       0.417000        1.0080           0
      4720 WT1      1319     TIP3     OH2      OT      -0.834000       15.9994           0
      4721 WT1      1319     TIP3     H1       HT       0.417000        1.0080           0
      4722 WT1      1319     TIP3     H2       HT       0.417000        1.0080           0
      4723 WT1      1320     TIP3     OH2      OT      -0.834000       15.9994           0
      4724 WT1      1320     TIP3     H1       HT       0.417000        1.0080           0
      4725 WT1      1320     TIP3     H2       HT       0.417000        1.0080           0
      4726 WT1      1321     TIP3     OH2      OT      -0.834000       15.9994           0
      4727 WT1      1321     TIP3     H1       HT       0.417000        1.0080           0
      4728 WT1      1321     TIP3     H2       HT       0.417000        1.0080           0
      4729 WT1      1322     TIP3     OH2      OT      -0.834000       15.9994           0
      4730 WT1      1322     TIP3     H1       HT       0.417000        1.0080           0
      4731 WT1      1322     TIP3     H2       HT       0.417000        1.0080           0
      4732 WT1      1323     TIP3     OH2      OT      -0.834000       15.9994           0
      4733 WT1      1323     TIP3     H1       HT       0.417000        1.0080           0
      4734 WT1      1323     TIP3     H2       HT       0.417000        1.0080           0
      4735 WT1      1324     TIP3     OH2      OT      -0.834000       15.9994           0
      4736 WT1      1324     TIP3     H1       HT       0.417000        1.0080           0
      4737 WT1      1324     TIP3     H2       HT       0.417000        1.0080           0
      4738 WT1      1325     TIP3     OH2      OT      -0.834000       15.9994           0
      4739 WT1      1325     TIP3     H1       HT       0.417000        1.0080           0
      4740 WT1      1325     TIP3     H2       HT       0.417000        1.0080           0
      4741 WT1      1326     TIP3     OH2      OT      -0.834000       15.9994           0
      4742 WT1      1326     TIP3     H1       HT       0.417000        1.0080           0
      4743 WT1      1326     TIP3     H2       HT       0.417000        1.0080           0
      4744 WT1      1327     TIP3     OH2      OT      -0.834000       15.9994           0
      4745 WT1      1327     TIP3     H1       HT       0.417000        1.0080           0
      4746 WT1      1327     TIP3     H2       HT       0.417000        1.0080           0
      4747 WT1      1328     TIP3     OH2      OT      -0.834000       15.9994           0
      4748 WT1      1328     TIP3     H1       HT       0.417000        1.0080           0
      4749 WT1      1328     TIP3     H2       HT       0.417000        1.0080           0
      4750 WT1      1329     TIP3     OH2      OT      -0.834000       15.9994           0
      4751 WT1      1329     TIP3     H1       HT       0.417000        1.0080           0
      4752 WT1      1329     TIP3     H2       HT       0.417000        1.0080           0
      4753 WT1      1330     TIP3     OH2      OT      -0.834000       15.9994           0
      4754 WT1      1330     TIP3     H1       HT       0.417000        1.0080           0
      4755 WT1      1330     TIP3     H2       HT       0.417000        1.0080           0
      4756 WT1      1332     TIP3     OH2      OT      -0.834000       15.9994           0
      4757 WT1      1332     TIP3     H1       HT       0.417000        1.0080           0
      4758 WT1      1332     TIP3     H2       HT       0.417000        1.0080           0
      4759 WT1      1333     TIP3     OH2      OT      -0.834000       15.9994           0
      4760 WT1      1333     TIP3     H1       HT       0.417000        1.0080           0
      4761 WT1      1333     TIP3     H2       HT       0.417000        1.0080           0
      4762 WT1      1334     TIP3     OH2      OT      -0.834000       15.9994           0
      4763 WT1      1334     TIP3     H1       HT       0.417000        1.0080           0
      4764 WT1      1334     TIP3     H2       HT       0.417000        1.0080           0
      4765 WT1      1335     TIP3     OH2      OT      -0.834000       15.9994           0
      4766 WT1      1335     TIP3     H1       HT       0.417000        1.0080           0
      4767 WT1      1335     TIP3     H2       HT       0.417000        1.0080           0
      4768 WT1      1336     TIP3     OH2      OT      -0.834000       15.9994           0
      4769 WT1      1336     TIP3     H1       HT       0.417000        1.0080           0
      4770 WT1      1336     TIP3     H2       HT       0.417000        1.0080           0
      4771 WT1      1337     TIP3     OH2      OT      -0.834000       15.9994           0
      4772 WT1      1337     TIP3     H1       HT       0.417000        1.0080           0
      4773 WT1      1337     TIP3     H2       HT       0.417000        1.0080           0
      4774 WT1      1338     TIP3     OH2      OT      -0.834000       15.9994           0
      4775 WT1      1338     TIP3     H1       HT       0.417000        1.0080           0
      4776 WT1      1338     TIP3     H2       HT       0.417000        1.0080           0
      4777 WT1      1339     TIP3     OH2      OT      -0.834000       15.9994           0
      4778 WT1      1339     TIP3     H1       HT       0.417000        1.0080           0
      4779 WT1      1339     TIP3     H2       HT       0.417000        1.0080           0
      4780 WT1      1340     TIP3     OH2      OT      -0.834000       15.9994           0
      4781 WT1      1340     TIP3     H1       HT       0.417000        1.0080           0
      4782 WT1      1340     TIP3     H2       HT       0.417000        1.0080           0
      4783 WT1      1342     TIP3     OH2      OT      -0.834000       15.9994           0
      4784 WT1      1342     TIP3     H1       HT       0.417000        1.0080           0
      4785 WT1      1342     TIP3     H2       HT       0.417000        1.0080           0
      4786 WT1      1343     TIP3     OH2      OT      -0.834000       15.9994           0
      4787 WT1      1343     TIP3     H1       HT       0.417000        1.0080           0
      4788 WT1      1343     TIP3     H2       HT       0.417000        1.0080           0
      4789 WT1      1344     TIP3     OH2      OT      -0.834000       15.9994           0
      4790 WT1      1344     TIP3     H1       HT       0.417000        1.0080           0
      4791 WT1      1344     TIP3     H2       HT       0.417000        1.0080           0
      4792 WT1      1345     TIP3     OH2      OT      -0.834000       15.9994           0
      4793 WT1      1345     TIP3     H1       HT       0.417000        1.0080           0
      4794 WT1      1345     TIP3     H2       HT       0.417000        1.0080           0
      4795 WT1      1346     TIP3     OH2      OT      -0.834000       15.9994           0
      4796 WT1      1346     TIP3     H1       HT       0.417000        1.0080           0
      4797 WT1      1346     TIP3     H2       HT       0.417000        1.0080           0
      4798 WT1      1347     TIP3     OH2      OT      -0.834000       15.9994           0
      4799 WT1      1347     TIP3     H1       HT       0.417000        1.0080           0
      4800 WT1      1347     TIP3     H2       HT       0.417000        1.0080           0
      4801 WT1      1348     TIP3     OH2      OT      -0.834000       15.9994           0
      4802 WT1      1348     TIP3     H1       HT       0.417000        1.0080           0
      4803 WT1      1348     TIP3     H2       HT       0.417000        1.0080           0
      4804 WT1      1349     TIP3     OH2      OT      -0.834000       15.9994           0
      4805 WT1      1349     TIP3     H1       HT       0.417000        1.0080           0
      4806 WT1      1349     TIP3     H2       HT       0.417000        1.0080           0
      4807 WT1      1350     TIP3     OH2      OT      -0.834000       15.9994           0
      4808 WT1      1350     TIP3     H1       HT       0.417000        1.0080           0
      4809 WT1      1350     TIP3     H2       HT       0.417000        1.0080           0
      4810 WT1      1351     TIP3     OH2      OT      -0.834000       15.9994           0
      4811 WT1      1351     TIP3     H1       HT       0.417000        1.0080           0
      4812 WT1      1351     TIP3     H2       HT       0.417000        1.0080           0
      4813 WT1      1352     TIP3     OH2      OT      -0.834000       15.9994           0
      4814 WT1      1352     TIP3     H1       HT       0.417000        1.0080           0
      4815 WT1      1352     TIP3     H2       HT       0.417000        1.0080           0
      4816 WT1      1353     TIP3     OH2      OT      -0.834000       15.9994           0
      4817 WT1      1353     TIP3     H1       HT       0.417000        1.0080           0
      4818 WT1      1353     TIP3     H2       HT       0.417000        1.0080           0
      4819 WT1      1354     TIP3     OH2      OT      -0.834000       15.9994           0
      4820 WT1      1354     TIP3     H1       HT       0.417000        1.0080           0
      4821 WT1      1354     TIP3     H2       HT       0.417000        1.0080           0
      4822 WT1      1355     TIP3     OH2      OT      -0.834000       15.9994           0
      4823 WT1      1355     TIP3     H1       HT       0.417000        1.0080           0
      4824 WT1      1355     TIP3     H2       HT       0.417000        1.0080           0
      4825 WT1      1356     TIP3     OH2      OT      -0.834000       15.9994           0
      4826 WT1      1356     TIP3     H1       HT       0.417000        1.0080           0
      4827 WT1      1356     TIP3     H2       HT       0.417000        1.0080           0
      4828 WT1      1357     TIP3     OH2      OT      -0.834000       15.9994           0
      4829 WT1      1357     TIP3     H1       HT       0.417000        1.0080           0
      4830 WT1      1357     TIP3     H2       HT       0.417000        1.0080           0
      4831 WT1      1358     TIP3     OH2      OT      -0.834000       15.9994           0
      4832 WT1      1358     TIP3     H1       HT       0.417000        1.0080           0
      4833 WT1      1358     TIP3     H2       HT       0.417000        1.0080           0
      4834 WT1      1359     TIP3     OH2      OT      -0.834000       15.9994           0
      4835 WT1      1359     TIP3     H1       HT       0.417000        1.0080           0
      4836 WT1      1359     TIP3     H2       HT       0.417000        1.0080           0
      4837 WT1      1360     TIP3     OH2      OT      -0.834000       15.9994           0
      4838 WT1      1360     TIP3     H1       HT       0.417000        1.0080           0
      4839 WT1      1360     TIP3     H2       HT       0.417000        1.0080           0
      4840 WT1      1361     TIP3     OH2      OT      -0.834000       15.9994           0
      4841 WT1      1361     TIP3     H1       HT       0.417000        1.0080           0
      4842 WT1      1361     TIP3     H2       HT       0.417000        1.0080           0
      4843 WT1      1362     TIP3     OH2      OT      -0.834000       15.9994           0
      4844 WT1      1362     TIP3     H1       HT       0.417000        1.0080           0
      4845 WT1      1362     TIP3     H2       HT       0.417000        1.0080           0
      4846 WT1      1363     TIP3     OH2      OT      -0.834000       15.9994           0
      4847 WT1      1363     TIP3     H1       HT       0.417000        1.0080           0
      4848 WT1      1363     TIP3     H2       HT       0.417000        1.0080           0
      4849 WT1      1364     TIP3     OH2      OT      -0.834000       15.9994           0
      4850 WT1      1364     TIP3     H1       HT       0.417000        1.0080           0
      4851 WT1      1364     TIP3     H2       HT       0.417000        1.0080           0
      4852 WT1      1365     TIP3     OH2      OT      -0.834000       15.9994           0
      4853 WT1      1365     TIP3     H1       HT       0.417000        1.0080           0
      4854 WT1      1365     TIP3     H2       HT       0.417000        1.0080           0
      4855 WT1      1366     TIP3     OH2      OT      -0.834000       15.9994           0
      4856 WT1      1366     TIP3     H1       HT       0.417000        1.0080           0
      4857 WT1      1366     TIP3     H2       HT       0.417000        1.0080           0
      4858 WT1      1367     TIP3     OH2      OT      -0.834000       15.9994           0
      4859 WT1      1367     TIP3     H1       HT       0.417000        1.0080           0
      4860 WT1      1367     TIP3     H2       HT       0.417000        1.0080           0
      4861 WT1      1368     TIP3     OH2      OT      -0.834000       15.9994           0
      4862 WT1      1368     TIP3     H1       HT       0.417000        1.0080           0
      4863 WT1      1368     TIP3     H2       HT       0.417000        1.0080           0
      4864 WT1      1369     TIP3     OH2      OT      -0.834000       15.9994           0
      4865 WT1      1369     TIP3     H1       HT       0.417000        1.0080           0
      4866 WT1      1369     TIP3     H2       HT       0.417000        1.0080           0
      4867 WT1      1370     TIP3     OH2      OT      -0.834000       15.9994           0
      4868 WT1      1370     TIP3     H1       HT       0.417000        1.0080           0
      4869 WT1      1370     TIP3     H2       HT       0.417000        1.0080           0
      4870 WT1      1371     TIP3     OH2      OT      -0.834000       15.9994           0
      4871 WT1      1371     TIP3     H1       HT       0.417000        1.0080           0
      4872 WT1      1371     TIP3     H2       HT       0.417000        1.0080           0
      4873 WT1      1372     TIP3     OH2      OT      -0.834000       15.9994           0
      4874 WT1      1372     TIP3     H1       HT       0.417000        1.0080           0
      4875 WT1      1372     TIP3     H2       HT       0.417000        1.0080           0
      4876 WT1      1373     TIP3     OH2      OT      -0.834000       15.9994           0
      4877 WT1      1373     TIP3     H1       HT       0.417000        1.0080           0
      4878 WT1      1373     TIP3     H2       HT       0.417000        1.0080           0
      4879 WT1      1374     TIP3     OH2      OT      -0.834000       15.9994           0
      4880 WT1      1374     TIP3     H1       HT       0.417000        1.0080           0
      4881 WT1      1374     TIP3     H2       HT       0.417000        1.0080           0
      4882 WT1      1375     TIP3     OH2      OT      -0.834000       15.9994           0
      4883 WT1      1375     TIP3     H1       HT       0.417000        1.0080           0
      4884 WT1      1375     TIP3     H2       HT       0.417000        1.0080           0
      4885 WT1      1376     TIP3     OH2      OT      -0.834000       15.9994           0
      4886 WT1      1376     TIP3     H1       HT       0.417000        1.0080           0
      4887 WT1      1376     TIP3     H2       HT       0.417000        1.0080           0
      4888 WT1      1377     TIP3     OH2      OT      -0.834000       15.9994           0
      4889 WT1      1377     TIP3     H1       HT       0.417000        1.0080           0
      4890 WT1      1377     TIP3     H2       HT       0.417000        1.0080           0
      4891 WT1      1378     TIP3     OH2      OT      -0.834000       15.9994           0
      4892 WT1      1378     TIP3     H1       HT       0.417000        1.0080           0
      4893 WT1      1378     TIP3     H2       HT       0.417000        1.0080           0
      4894 WT1      1379     TIP3     OH2      OT      -0.834000       15.9994           0
      4895 WT1      1379     TIP3     H1       HT       0.417000        1.0080           0
      4896 WT1      1379     TIP3     H2       HT       0.417000        1.0080           0
      4897 WT1      1380     TIP3     OH2      OT      -0.834000       15.9994           0
      4898 WT1      1380     TIP3     H1       HT       0.417000        1.0080           0
      4899 WT1      1380     TIP3     H2       HT       0.417000        1.0080           0
      4900 WT1      1381     TIP3     OH2      OT      -0.834000       15.9994           0
      4901 WT1      1381     TIP3     H1       HT       0.417000        1.0080           0
      4902 WT1      1381     TIP3     H2       HT       0.417000        1.0080           0
      4903 WT1      1382     TIP3     OH2      OT      -0.834000       15.9994           0
      4904 WT1      1382     TIP3     H1       HT       0.417000        1.0080           0
      4905 WT1      1382     TIP3     H2       HT       0.417000        1.0080           0
      4906 WT1      1383     TIP3     OH2      OT      -0.834000       15.9994           0
      4907 WT1      1383     TIP3     H1       HT       0.417000        1.0080           0
      4908 WT1      1383     TIP3     H2       HT       0.417000        1.0080           0
      4909 WT1      1384     TIP3     OH2      OT      -0.834000       15.9994           0
      4910 WT1      1384     TIP3     H1       HT       0.417000        1.0080           0
      4911 WT1      1384     TIP3     H2       HT       0.417000        1.0080           0
      4912 WT1      1385     TIP3     OH2      OT      -0.834000       15.9994           0
      4913 WT1      1385     TIP3     H1       HT       0.417000        1.0080           0
      4914 WT1      1385     TIP3     H2       HT       0.417000        1.0080           0
      4915 WT1      1387     TIP3     OH2      OT      -0.834000       15.9994           0
      4916 WT1      1387     TIP3     H1       HT       0.417000        1.0080           0
      4917 WT1      1387     TIP3     H2       HT       0.417000        1.0080           0
      4918 WT1      1388     TIP3     OH2      OT      -0.834000       15.9994           0
      4919 WT1      1388     TIP3     H1       HT       0.417000        1.0080           0
      4920 WT1      1388     TIP3     H2       HT       0.417000        1.0080           0
      4921 WT1      1389     TIP3     OH2      OT      -0.834000       15.9994           0
      4922 WT1      1389     TIP3     H1       HT       0.417000        1.0080           0
      4923 WT1      1389     TIP3     H2       HT       0.417000        1.0080           0
      4924 WT1      1390     TIP3     OH2      OT      -0.834000       15.9994           0
      4925 WT1      1390     TIP3     H1       HT       0.417000        1.0080           0
      4926 WT1      1390     TIP3     H2       HT       0.417000        1.0080           0
      4927 WT1      1391     TIP3     OH2      OT      -0.834000       15.9994           0
      4928 WT1      1391     TIP3     H1       HT       0.417000        1.0080           0
      4929 WT1      1391     TIP3     H2       HT       0.417000        1.0080           0
      4930 WT1      1392     TIP3     OH2      OT      -0.834000       15.9994           0
      4931 WT1      1392     TIP3     H1       HT       0.417000        1.0080           0
      4932 WT1      1392     TIP3     H2       HT       0.417000        1.0080           0
      4933 WT1      1393     TIP3     OH2      OT      -0.834000       15.9994           0
      4934 WT1      1393     TIP3     H1       HT       0.417000        1.0080           0
      4935 WT1      1393     TIP3     H2       HT       0.417000        1.0080           0
      4936 WT1      1394     TIP3     OH2      OT      -0.834000       15.9994           0
      4937 WT1      1394     TIP3     H1       HT       0.417000        1.0080           0
      4938 WT1      1394     TIP3     H2       HT       0.417000        1.0080           0
      4939 WT1      1395     TIP3     OH2      OT      -0.834000       15.9994           0
      4940 WT1      1395     TIP3     H1       HT       0.417000        1.0080           0
      4941 WT1      1395     TIP3     H2       HT       0.417000        1.0080           0
      4942 WT1      1396     TIP3     OH2      OT      -0.834000       15.9994           0
      4943 WT1      1396     TIP3     H1       HT       0.417000        1.0080           0
      4944 WT1      1396     TIP3     H2       HT       0.417000        1.0080           0
      4945 WT1      1397     TIP3     OH2      OT      -0.834000       15.9994           0
      4946 WT1      1397     TIP3     H1       HT       0.417000        1.0080           0
      4947 WT1      1397     TIP3     H2       HT       0.417000        1.0080           0
      4948 WT1      1398     TIP3     OH2      OT      -0.834000       15.9994           0
      4949 WT1      1398     TIP3     H1       HT       0.417000        1.0080           0
      4950 WT1      1398     TIP3     H2       HT       0.417000        1.0080           0
      4951 WT1      1399     TIP3     OH2      OT      -0.834000       15.9994           0
      4952 WT1      1399     TIP3     H1       HT       0.417000        1.0080           0
      4953 WT1      1399     TIP3     H2       HT       0.417000        1.0080           0
      4954 WT1      1400     TIP3     OH2      OT      -0.834000       15.9994           0
      4955 WT1      1400     TIP3     H1       HT       0.417000        1.0080           0
      4956 WT1      1400     TIP3     H2       HT       0.417000        1.0080           0
      4957 WT1      1401     TIP3     OH2      OT      -0.834000       15.9994           0
      4958 WT1      1401     TIP3     H1       HT       0.417000        1.0080           0
      4959 WT1      1401     TIP3     H2       HT       0.417000        1.0080           0
      4960 WT1      1402     TIP3     OH2      OT      -0.834000       15.9994           0
      4961 WT1      1402     TIP3     H1       HT       0.417000        1.0080           0
      4962 WT1      1402     TIP3     H2       HT       0.417000        1.0080           0
      4963 WT1      1403     TIP3     OH2      OT      -0.834000       15.9994           0
      4964 WT1      1403     TIP3     H1       HT       0.417000        1.0080           0
      4965 WT1      1403     TIP3     H2       HT       0.417000        1.0080           0
      4966 WT1      1404     TIP3     OH2      OT      -0.834000       15.9994           0
      4967 WT1      1404     TIP3     H1       HT       0.417000        1.0080           0
      4968 WT1      1404     TIP3     H2       HT       0.417000        1.0080           0
      4969 WT1      1405     TIP3     OH2      OT      -0.834000       15.9994           0
      4970 WT1      1405     TIP3     H1       HT       0.417000        1.0080           0
      4971 WT1      1405     TIP3     H2       HT       0.417000        1.0080           0
      4972 WT1      1406     TIP3     OH2      OT      -0.834000       15.9994           0
      4973 WT1      1406     TIP3     H1       HT       0.417000        1.0080           0
      4974 WT1      1406     TIP3     H2       HT       0.417000        1.0080           0
      4975 WT1      1407     TIP3     OH2      OT      -0.834000       15.9994           0
      4976 WT1      1407     TIP3     H1       HT       0.417000        1.0080           0
      4977 WT1      1407     TIP3     H2       HT       0.417000        1.0080           0
      4978 WT1      1408     TIP3     OH2      OT      -0.834000       15.9994           0
      4979 WT1      1408     TIP3     H1       HT       0.417000        1.0080           0
      4980 WT1      1408     TIP3     H2       HT       0.417000        1.0080           0
      4981 WT1      1409     TIP3     OH2      OT      -0.834000       15.9994           0
      4982 WT1      1409     TIP3     H1       HT       0.417000        1.0080           0
      4983 WT1      1409     TIP3     H2       HT       0.417000        1.0080           0
      4984 WT1      1410     TIP3     OH2      OT      -0.834000       15.9994           0
      4985 WT1      1410     TIP3     H1       HT       0.417000        1.0080           0
      4986 WT1      1410     TIP3     H2       HT       0.417000        1.0080           0
      4987 WT1      1411     TIP3     OH2      OT      -0.834000       15.9994           0
      4988 WT1      1411     TIP3     H1       HT       0.417000        1.0080           0
      4989 WT1      1411     TIP3     H2       HT       0.417000        1.0080           0
      4990 WT1      1412     TIP3     OH2      OT      -0.834000       15.9994           0
      4991 WT1      1412     TIP3     H1       HT       0.417000        1.0080           0
      4992 WT1      1412     TIP3     H2       HT       0.417000        1.0080           0
      4993 WT1      1413     TIP3     OH2      OT      -0.834000       15.9994           0
      4994 WT1      1413     TIP3     H1       HT       0.417000        1.0080           0
      4995 WT1      1413     TIP3     H2       HT       0.417000        1.0080           0
      4996 WT1      1414     TIP3     OH2      OT      -0.834000       15.9994           0
      4997 WT1      1414     TIP3     H1       HT       0.417000        1.0080           0
      4998 WT1      1414     TIP3     H2       HT       0.417000        1.0080           0
      4999 WT1      1415     TIP3     OH2      OT      -0.834000       15.9994           0
      5000 WT1      1415     TIP3     H1       HT       0.417000        1.0080           0
      5001 WT1      1415     TIP3     H2       HT       0.417000        1.0080           0
      5002 WT1      1416     TIP3     OH2      OT      -0.834000       15.9994           0
      5003 WT1      1416     TIP3     H1       HT       0.417000        1.0080           0
      5004 WT1      1416     TIP3     H2       HT       0.417000        1.0080           0
      5005 WT1      1417     TIP3     OH2      OT      -0.834000       15.9994           0
      5006 WT1      1417     TIP3     H1       HT       0.417000        1.0080           0
      5007 WT1      1417     TIP3     H2       HT       0.417000        1.0080           0
      5008 WT1      1418     TIP3     OH2      OT      -0.834000       15.9994           0
      5009 WT1      1418     TIP3     H1       HT       0.417000        1.0080           0
      5010 WT1      1418     TIP3     H2       HT       0.417000        1.0080           0
      5011 WT1      1419     TIP3     OH2      OT      -0.834000       15.9994           0
      5012 WT1      1419     TIP3     H1       HT       0.417000        1.0080           0
      5013 WT1      1419     TIP3     H2       HT       0.417000        1.0080           0
      5014 WT1      1420     TIP3     OH2      OT      -0.834000       15.9994           0
      5015 WT1      1420     TIP3     H1       HT       0.417000        1.0080           0
      5016 WT1      1420     TIP3     H2       HT       0.417000        1.0080           0
      5017 WT1      1421     TIP3     OH2      OT      -0.834000       15.9994           0
      5018 WT1      1421     TIP3     H1       HT       0.417000        1.0080           0
      5019 WT1      1421     TIP3     H2       HT       0.417000        1.0080           0
      5020 WT1      1422     TIP3     OH2      OT      -0.834000       15.9994           0
      5021 WT1      1422     TIP3     H1       HT       0.417000        1.0080           0
      5022 WT1      1422     TIP3     H2       HT       0.417000        1.0080           0
      5023 WT1      1423     TIP3     OH2      OT      -0.834000       15.9994           0
      5024 WT1      1423     TIP3     H1       HT       0.417000        1.0080           0
      5025 WT1      1423     TIP3     H2       HT       0.417000        1.0080           0
      5026 WT1      1424     TIP3     OH2      OT      -0.834000       15.9994           0
      5027 WT1      1424     TIP3     H1       HT       0.417000        1.0080           0
      5028 WT1      1424     TIP3     H2       HT       0.417000        1.0080           0
      5029 WT1      1426     TIP3     OH2      OT      -0.834000       15.9994           0
      5030 WT1      1426     TIP3     H1       HT       0.417000        1.0080           0
      5031 WT1      1426     TIP3     H2       HT       0.417000        1.0080           0
      5032 WT1      1428     TIP3     OH2      OT      -0.834000       15.9994           0
      5033 WT1      1428     TIP3     H1       HT       0.417000        1.0080           0
      5034 WT1      1428     TIP3     H2       HT       0.417000        1.0080           0
      5035 WT1      1429     TIP3     OH2      OT      -0.834000       15.9994           0
      5036 WT1      1429     TIP3     H1       HT       0.417000        1.0080           0
      5037 WT1      1429     TIP3     H2       HT       0.417000        1.0080           0
      5038 WT1      1430     TIP3     OH2      OT      -0.834000       15.9994           0
      5039 WT1      1430     TIP3     H1       HT       0.417000        1.0080           0
      5040 WT1      1430     TIP3     H2       HT       0.417000        1.0080           0
      5041 WT1      1431     TIP3     OH2      OT      -0.834000       15.9994           0
      5042 WT1      1431     TIP3     H1       HT       0.417000        1.0080           0
      5043 WT1      1431     TIP3     H2       HT       0.417000        1.0080           0
      5044 WT1      1432     TIP3     OH2      OT      -0.834000       15.9994           0
      5045 WT1      1432     TIP3     H1       HT       0.417000        1.0080           0
      5046 WT1      1432     TIP3     H2       HT       0.417000        1.0080           0
      5047 WT1      1433     TIP3     OH2      OT      -0.834000       15.9994           0
      5048 WT1      1433     TIP3     H1       HT       0.417000        1.0080           0
      5049 WT1      1433     TIP3     H2       HT       0.417000        1.0080           0
      5050 WT1      1434     TIP3     OH2      OT      -0.834000       15.9994           0
      5051 WT1      1434     TIP3     H1       HT       0.417000        1.0080           0
      5052 WT1      1434     TIP3     H2       HT       0.417000        1.0080           0
      5053 WT1      1435     TIP3     OH2      OT      -0.834000       15.9994           0
      5054 WT1      1435     TIP3     H1       HT       0.417000        1.0080           0
      5055 WT1      1435     TIP3     H2       HT       0.417000        1.0080           0
      5056 WT1      1436     TIP3     OH2      OT      -0.834000       15.9994           0
      5057 WT1      1436     TIP3     H1       HT       0.417000        1.0080           0
      5058 WT1      1436     TIP3     H2       HT       0.417000        1.0080           0
      5059 WT1      1437     TIP3     OH2      OT      -0.834000       15.9994           0
      5060 WT1      1437     TIP3     H1       HT       0.417000        1.0080           0
      5061 WT1      1437     TIP3     H2       HT       0.417000        1.0080           0
      5062 WT1      1438     TIP3     OH2      OT      -0.834000       15.9994           0
      5063 WT1      1438     TIP3     H1       HT       0.417000        1.0080           0
      5064 WT1      1438     TIP3     H2       HT       0.417000        1.0080           0
      5065 WT1      1439     TIP3     OH2      OT      -0.834000       15.9994           0
      5066 WT1      1439     TIP3     H1       HT       0.417000        1.0080           0
      5067 WT1      1439     TIP3     H2       HT       0.417000        1.0080           0
      5068 WT1      1440     TIP3     OH2      OT      -0.834000       15.9994           0
      5069 WT1      1440     TIP3     H1       HT       0.417000        1.0080           0
      5070 WT1      1440     TIP3     H2       HT       0.417000        1.0080           0
      5071 WT1      1441     TIP3     OH2      OT      -0.834000       15.9994           0
      5072 WT1      1441     TIP3     H1       HT       0.417000        1.0080           0
      5073 WT1      1441     TIP3     H2       HT       0.417000        1.0080           0
      5074 WT1      1442     TIP3     OH2      OT      -0.834000       15.9994           0
      5075 WT1      1442     TIP3     H1       HT       0.417000        1.0080           0
      5076 WT1      1442     TIP3     H2       HT       0.417000        1.0080           0
      5077 WT1      1443     TIP3     OH2      OT      -0.834000       15.9994           0
      5078 WT1      1443     TIP3     H1       HT       0.417000        1.0080           0
      5079 WT1      1443     TIP3     H2       HT       0.417000        1.0080           0
      5080 WT1      1444     TIP3     OH2      OT      -0.834000       15.9994           0
      5081 WT1      1444     TIP3     H1       HT       0.417000        1.0080           0
      5082 WT1      1444     TIP3     H2       HT       0.417000        1.0080           0
      5083 WT1      1445     TIP3     OH2      OT      -0.834000       15.9994           0
      5084 WT1      1445     TIP3     H1       HT       0.417000        1.0080           0
      5085 WT1      1445     TIP3     H2       HT       0.417000        1.0080           0
      5086 WT1      1446     TIP3     OH2      OT      -0.834000       15.9994           0
      5087 WT1      1446     TIP3     H1       HT       0.417000        1.0080           0
      5088 WT1      1446     TIP3     H2       HT       0.417000        1.0080           0
      5089 WT1      1447     TIP3     OH2      OT      -0.834000       15.9994           0
      5090 WT1      1447     TIP3     H1       HT       0.417000        1.0080           0
      5091 WT1      1447     TIP3     H2       HT       0.417000        1.0080           0
      5092 WT1      1448     TIP3     OH2      OT      -0.834000       15.9994           0
      5093 WT1      1448     TIP3     H1       HT       0.417000        1.0080           0
      5094 WT1      1448     TIP3     H2       HT       0.417000        1.0080           0
      5095 WT1      1449     TIP3     OH2      OT      -0.834000       15.9994           0
      5096 WT1      1449     TIP3     H1       HT       0.417000        1.0080           0
      5097 WT1      1449     TIP3     H2       HT       0.417000        1.0080           0
      5098 WT1      1450     TIP3     OH2      OT      -0.834000       15.9994           0
      5099 WT1      1450     TIP3     H1       HT       0.417000        1.0080           0
      5100 WT1      1450     TIP3     H2       HT       0.417000        1.0080           0
      5101 WT1      1451     TIP3     OH2      OT      -0.834000       15.9994           0
      5102 WT1      1451     TIP3     H1       HT       0.417000        1.0080           0
      5103 WT1      1451     TIP3     H2       HT       0.417000        1.0080           0
      5104 WT1      1453     TIP3     OH2      OT      -0.834000       15.9994           0
      5105 WT1      1453     TIP3     H1       HT       0.417000        1.0080           0
      5106 WT1      1453     TIP3     H2       HT       0.417000        1.0080           0
      5107 WT1      1454     TIP3     OH2      OT      -0.834000       15.9994           0
      5108 WT1      1454     TIP3     H1       HT       0.417000        1.0080           0
      5109 WT1      1454     TIP3     H2       HT       0.417000        1.0080           0
      5110 WT1      1455     TIP3     OH2      OT      -0.834000       15.9994           0
      5111 WT1      1455     TIP3     H1       HT       0.417000        1.0080           0
      5112 WT1      1455     TIP3     H2       HT       0.417000        1.0080           0
      5113 WT1      1456     TIP3     OH2      OT      -0.834000       15.9994           0
      5114 WT1      1456     TIP3     H1       HT       0.417000        1.0080           0
      5115 WT1      1456     TIP3     H2       HT       0.417000        1.0080           0
      5116 WT1      1457     TIP3     OH2      OT      -0.834000       15.9994           0
      5117 WT1      1457     TIP3     H1       HT       0.417000        1.0080           0
      5118 WT1      1457     TIP3     H2       HT       0.417000        1.0080           0
      5119 WT1      1458     TIP3     OH2      OT      -0.834000       15.9994           0
      5120 WT1      1458     TIP3     H1       HT       0.417000        1.0080           0
      5121 WT1      1458     TIP3     H2       HT       0.417000        1.0080           0
      5122 WT1      1459     TIP3     OH2      OT      -0.834000       15.9994           0
      5123 WT1      1459     TIP3     H1       HT       0.417000        1.0080           0
      5124 WT1      1459     TIP3     H2       HT       0.417000        1.0080           0
      5125 WT1      1460     TIP3     OH2      OT      -0.834000       15.9994           0
      5126 WT1      1460     TIP3     H1       HT       0.417000        1.0080           0
      5127 WT1      1460     TIP3     H2       HT       0.417000        1.0080           0
      5128 WT1      1461     TIP3     OH2      OT      -0.834000       15.9994           0
      5129 WT1      1461     TIP3     H1       HT       0.417000        1.0080           0
      5130 WT1      1461     TIP3     H2       HT       0.417000        1.0080           0
      5131 WT1      1462     TIP3     OH2      OT      -0.834000       15.9994           0
      5132 WT1      1462     TIP3     H1       HT       0.417000        1.0080           0
      5133 WT1      1462     TIP3     H2       HT       0.417000        1.0080           0
      5134 WT1      1463     TIP3     OH2      OT      -0.834000       15.9994           0
      5135 WT1      1463     TIP3     H1       HT       0.417000        1.0080           0
      5136 WT1      1463     TIP3     H2       HT       0.417000        1.0080           0
      5137 WT1      1464     TIP3     OH2      OT      -0.834000       15.9994           0
      5138 WT1      1464     TIP3     H1       HT       0.417000        1.0080           0
      5139 WT1      1464     TIP3     H2       HT       0.417000        1.0080           0
      5140 WT1      1465     TIP3     OH2      OT      -0.834000       15.9994           0
      5141 WT1      1465     TIP3     H1       HT       0.417000        1.0080           0
      5142 WT1      1465     TIP3     H2       HT       0.417000        1.0080           0
      5143 WT1      1466     TIP3     OH2      OT      -0.834000       15.9994           0
      5144 WT1      1466     TIP3     H1       HT       0.417000        1.0080           0
      5145 WT1      1466     TIP3     H2       HT       0.417000        1.0080           0
      5146 WT1      1467     TIP3     OH2      OT      -0.834000       15.9994           0
      5147 WT1      1467     TIP3     H1       HT       0.417000        1.0080           0
      5148 WT1      1467     TIP3     H2       HT       0.417000        1.0080           0
      5149 WT1      1468     TIP3     OH2      OT      -0.834000       15.9994           0
      5150 WT1      1468     TIP3     H1       HT       0.417000        1.0080           0
      5151 WT1      1468     TIP3     H2       HT       0.417000        1.0080           0
      5152 WT1      1469     TIP3     OH2      OT      -0.834000       15.9994           0
      5153 WT1      1469     TIP3     H1       HT       0.417000        1.0080           0
      5154 WT1      1469     TIP3     H2       HT       0.417000        1.0080           0
      5155 WT1      1470     TIP3     OH2      OT      -0.834000       15.9994           0
      5156 WT1      1470     TIP3     H1       HT       0.417000        1.0080           0
      5157 WT1      1470     TIP3     H2       HT       0.417000        1.0080           0
      5158 WT1      1471     TIP3     OH2      OT      -0.834000       15.9994           0
      5159 WT1      1471     TIP3     H1       HT       0.417000        1.0080           0
      5160 WT1      1471     TIP3     H2       HT       0.417000        1.0080           0
      5161 WT1      1472     TIP3     OH2      OT      -0.834000       15.9994           0
      5162 WT1      1472     TIP3     H1       HT       0.417000        1.0080           0
      5163 WT1      1472     TIP3     H2       HT       0.417000        1.0080           0
      5164 WT1      1473     TIP3     OH2      OT      -0.834000       15.9994           0
      5165 WT1      1473     TIP3     H1       HT       0.417000        1.0080           0
      5166 WT1      1473     TIP3     H2       HT       0.417000        1.0080           0
      5167 WT1      1474     TIP3     OH2      OT      -0.834000       15.9994           0
      5168 WT1      1474     TIP3     H1       HT       0.417000        1.0080           0
      5169 WT1      1474     TIP3     H2       HT       0.417000        1.0080           0
      5170 WT1      1475     TIP3     OH2      OT      -0.834000       15.9994           0
      5171 WT1      1475     TIP3     H1       HT       0.417000        1.0080           0
      5172 WT1      1475     TIP3     H2       HT       0.417000        1.0080           0
      5173 WT1      1476     TIP3     OH2      OT      -0.834000       15.9994           0
      5174 WT1      1476     TIP3     H1       HT       0.417000        1.0080           0
      5175 WT1      1476     TIP3     H2       HT       0.417000        1.0080           0
      5176 WT1      1477     TIP3     OH2      OT      -0.834000       15.9994           0
      5177 WT1      1477     TIP3     H1       HT       0.417000        1.0080           0
      5178 WT1      1477     TIP3     H2       HT       0.417000        1.0080           0
      5179 WT1      1478     TIP3     OH2      OT      -0.834000       15.9994           0
      5180 WT1      1478     TIP3     H1       HT       0.417000        1.0080           0
      5181 WT1      1478     TIP3     H2       HT       0.417000        1.0080           0
      5182 WT1      1479     TIP3     OH2      OT      -0.834000       15.9994           0
      5183 WT1      1479     TIP3     H1       HT       0.417000        1.0080           0
      5184 WT1      1479     TIP3     H2       HT       0.417000        1.0080           0
      5185 WT1      1480     TIP3     OH2      OT      -0.834000       15.9994           0
      5186 WT1      1480     TIP3     H1       HT       0.417000        1.0080           0
      5187 WT1      1480     TIP3     H2       HT       0.417000        1.0080           0
      5188 WT1      1481     TIP3     OH2      OT      -0.834000       15.9994           0
      5189 WT1      1481     TIP3     H1       HT       0.417000        1.0080           0
      5190 WT1      1481     TIP3     H2       HT       0.417000        1.0080           0
      5191 WT1      1482     TIP3     OH2      OT      -0.834000       15.9994           0
      5192 WT1      1482     TIP3     H1       HT       0.417000        1.0080           0
      5193 WT1      1482     TIP3     H2       HT       0.417000        1.0080           0
      5194 WT1      1483     TIP3     OH2      OT      -0.834000       15.9994           0
      5195 WT1      1483     TIP3     H1       HT       0.417000        1.0080           0
      5196 WT1      1483     TIP3     H2       HT       0.417000        1.0080           0
      5197 WT1      1484     TIP3     OH2      OT      -0.834000       15.9994           0
      5198 WT1      1484     TIP3     H1       HT       0.417000        1.0080           0
      5199 WT1      1484     TIP3     H2       HT       0.417000        1.0080           0
      5200 WT1      1485     TIP3     OH2      OT      -0.834000       15.9994           0
      5201 WT1      1485     TIP3     H1       HT       0.417000        1.0080           0
      5202 WT1      1485     TIP3     H2       HT       0.417000        1.0080           0
      5203 WT1      1486     TIP3     OH2      OT      -0.834000       15.9994           0
      5204 WT1      1486     TIP3     H1       HT       0.417000        1.0080           0
      5205 WT1      1486     TIP3     H2       HT       0.417000        1.0080           0
      5206 WT1      1487     TIP3     OH2      OT      -0.834000       15.9994           0
      5207 WT1      1487     TIP3     H1       HT       0.417000        1.0080           0
      5208 WT1      1487     TIP3     H2       HT       0.417000        1.0080           0
      5209 WT1      1488     TIP3     OH2      OT      -0.834000       15.9994           0
      5210 WT1      1488     TIP3     H1       HT       0.417000        1.0080           0
      5211 WT1      1488     TIP3     H2       HT       0.417000        1.0080           0
      5212 WT1      1489     TIP3     OH2      OT      -0.834000       15.9994           0
      5213 WT1      1489     TIP3     H1       HT       0.417000        1.0080           0
      5214 WT1      1489     TIP3     H2       HT       0.417000        1.0080           0
      5215 WT1      1490     TIP3     OH2      OT      -0.834000       15.9994           0
      5216 WT1      1490     TIP3     H1       HT       0.417000        1.0080           0
      5217 WT1      1490     TIP3     H2       HT       0.417000        1.0080           0
      5218 WT1      1491     TIP3     OH2      OT      -0.834000       15.9994           0
      5219 WT1      1491     TIP3     H1       HT       0.417000        1.0080           0
      5220 WT1      1491     TIP3     H2       HT       0.417000        1.0080           0
      5221 WT1      1492     TIP3     OH2      OT      -0.834000       15.9994           0
      5222 WT1      1492     TIP3     H1       HT       0.417000        1.0080           0
      5223 WT1      1492     TIP3     H2       HT       0.417000        1.0080           0
      5224 WT1      1493     TIP3     OH2      OT      -0.834000       15.9994           0
      5225 WT1      1493     TIP3     H1       HT       0.417000        1.0080           0
      5226 WT1      1493     TIP3     H2       HT       0.417000        1.0080           0
      5227 WT1      1494     TIP3     OH2      OT      -0.834000       15.9994           0
      5228 WT1      1494     TIP3     H1       HT       0.417000        1.0080           0
      5229 WT1      1494     TIP3     H2       HT       0.417000        1.0080           0
      5230 WT1      1495     TIP3     OH2      OT      -0.834000       15.9994           0
      5231 WT1      1495     TIP3     H1       HT       0.417000        1.0080           0
      5232 WT1      1495     TIP3     H2       HT       0.417000        1.0080           0
      5233 WT1      1496     TIP3     OH2      OT      -0.834000       15.9994           0
      5234 WT1      1496     TIP3     H1       HT       0.417000        1.0080           0
      5235 WT1      1496     TIP3     H2       HT       0.417000        1.0080           0
      5236 WT1      1497     TIP3     OH2      OT      -0.834000       15.9994           0
      5237 WT1      1497     TIP3     H1       HT       0.417000        1.0080           0
      5238 WT1      1497     TIP3     H2       HT       0.417000        1.0080           0
      5239 WT1      1498     TIP3     OH2      OT      -0.834000       15.9994           0
      5240 WT1      1498     TIP3     H1       HT       0.417000        1.0080           0
      5241 WT1      1498     TIP3     H2       HT       0.417000        1.0080           0
      5242 WT1      1499     TIP3     OH2      OT      -0.834000       15.9994           0
      5243 WT1      1499     TIP3     H1       HT       0.417000        1.0080           0
      5244 WT1      1499     TIP3     H2       HT       0.417000        1.0080           0
      5245 WT1      1500     TIP3     OH2      OT      -0.834000       15.9994           0
      5246 WT1      1500     TIP3     H1       HT       0.417000        1.0080           0
      5247 WT1      1500     TIP3     H2       HT       0.417000        1.0080           0
      5248 WT1      1501     TIP3     OH2      OT      -0.834000       15.9994           0
      5249 WT1      1501     TIP3     H1       HT       0.417000        1.0080           0
      5250 WT1      1501     TIP3     H2       HT       0.417000        1.0080           0
      5251 WT1      1502     TIP3     OH2      OT      -0.834000       15.9994           0
      5252 WT1      1502     TIP3     H1       HT       0.417000        1.0080           0
      5253 WT1      1502     TIP3     H2       HT       0.417000        1.0080           0
      5254 WT1      1503     TIP3     OH2      OT      -0.834000       15.9994           0
      5255 WT1      1503     TIP3     H1       HT       0.417000        1.0080           0
      5256 WT1      1503     TIP3     H2       HT       0.417000        1.0080           0
      5257 WT1      1504     TIP3     OH2      OT      -0.834000       15.9994           0
      5258 WT1      1504     TIP3     H1       HT       0.417000        1.0080           0
      5259 WT1      1504     TIP3     H2       HT       0.417000        1.0080           0
      5260 WT1      1505     TIP3     OH2      OT      -0.834000       15.9994           0
      5261 WT1      1505     TIP3     H1       HT       0.417000        1.0080           0
      5262 WT1      1505     TIP3     H2       HT       0.417000        1.0080           0
      5263 WT1      1506     TIP3     OH2      OT      -0.834000       15.9994           0
      5264 WT1      1506     TIP3     H1       HT       0.417000        1.0080           0
      5265 WT1      1506     TIP3     H2       HT       0.417000        1.0080           0
      5266 WT1      1507     TIP3     OH2      OT      -0.834000       15.9994           0
      5267 WT1      1507     TIP3     H1       HT       0.417000        1.0080           0
      5268 WT1      1507     TIP3     H2       HT       0.417000        1.0080           0
      5269 WT1      1508     TIP3     OH2      OT      -0.834000       15.9994           0
      5270 WT1      1508     TIP3     H1       HT       0.417000        1.0080           0
      5271 WT1      1508     TIP3     H2       HT       0.417000        1.0080           0
      5272 WT1      1509     TIP3     OH2      OT      -0.834000       15.9994           0
      5273 WT1      1509     TIP3     H1       HT       0.417000        1.0080           0
      5274 WT1      1509     TIP3     H2       HT       0.417000        1.0080           0
      5275 WT1      1510     TIP3     OH2      OT      -0.834000       15.9994           0
      5276 WT1      1510     TIP3     H1       HT       0.417000        1.0080           0
      5277 WT1      1510     TIP3     H2       HT       0.417000        1.0080           0
      5278 WT1      1511     TIP3     OH2      OT      -0.834000       15.9994           0
      5279 WT1      1511     TIP3     H1       HT       0.417000        1.0080           0
      5280 WT1      1511     TIP3     H2       HT       0.417000        1.0080           0
      5281 WT1      1512     TIP3     OH2      OT      -0.834000       15.9994           0
      5282 WT1      1512     TIP3     H1       HT       0.417000        1.0080           0
      5283 WT1      1512     TIP3     H2       HT       0.417000        1.0080           0
      5284 WT1      1513     TIP3     OH2      OT      -0.834000       15.9994           0
      5285 WT1      1513     TIP3     H1       HT       0.417000        1.0080           0
      5286 WT1      1513     TIP3     H2       HT       0.417000        1.0080           0
      5287 WT1      1514     TIP3     OH2      OT      -0.834000       15.9994           0
      5288 WT1      1514     TIP3     H1       HT       0.417000        1.0080           0
      5289 WT1      1514     TIP3     H2       HT       0.417000        1.0080           0
      5290 WT1      1515     TIP3     OH2      OT      -0.834000       15.9994           0
      5291 WT1      1515     TIP3     H1       HT       0.417000        1.0080           0
      5292 WT1      1515     TIP3     H2       HT       0.417000        1.0080           0
      5293 WT1      1516     TIP3     OH2      OT      -0.834000       15.9994           0
      5294 WT1      1516     TIP3     H1       HT       0.417000        1.0080           0
      5295 WT1      1516     TIP3     H2       HT       0.417000        1.0080           0
      5296 WT1      1517     TIP3     OH2      OT      -0.834000       15.9994           0
      5297 WT1      1517     TIP3     H1       HT       0.417000        1.0080           0
      5298 WT1      1517     TIP3     H2       HT       0.417000        1.0080           0
      5299 WT1      1518     TIP3     OH2      OT      -0.834000       15.9994           0
      5300 WT1      1518     TIP3     H1       HT       0.417000        1.0080           0
      5301 WT1      1518     TIP3     H2       HT       0.417000        1.0080           0
      5302 WT1      1519     TIP3     OH2      OT      -0.834000       15.9994           0
      5303 WT1      1519     TIP3     H1       HT       0.417000        1.0080           0
      5304 WT1      1519     TIP3     H2       HT       0.417000        1.0080           0
      5305 WT1      1520     TIP3     OH2      OT      -0.834000       15.9994           0
      5306 WT1      1520     TIP3     H1       HT       0.417000        1.0080           0
      5307 WT1      1520     TIP3     H2       HT       0.417000        1.0080           0
      5308 WT1      1521     TIP3     OH2      OT      -0.834000       15.9994           0
      5309 WT1      1521     TIP3     H1       HT       0.417000        1.0080           0
      5310 WT1      1521     TIP3     H2       HT       0.417000        1.0080           0
      5311 WT1      1522     TIP3     OH2      OT      -0.834000       15.9994           0
      5312 WT1      1522     TIP3     H1       HT       0.417000        1.0080           0
      5313 WT1      1522     TIP3     H2       HT       0.417000        1.0080           0
      5314 WT1      1523     TIP3     OH2      OT      -0.834000       15.9994           0
      5315 WT1      1523     TIP3     H1       HT       0.417000        1.0080           0
      5316 WT1      1523     TIP3     H2       HT       0.417000        1.0080           0
      5317 WT1      1524     TIP3     OH2      OT      -0.834000       15.9994           0
      5318 WT1      1524     TIP3     H1       HT       0.417000        1.0080           0
      5319 WT1      1524     TIP3     H2       HT       0.417000        1.0080           0
      5320 WT1      1525     TIP3     OH2      OT      -0.834000       15.9994           0
      5321 WT1      1525     TIP3     H1       HT       0.417000        1.0080           0
      5322 WT1      1525     TIP3     H2       HT       0.417000        1.0080           0
      5323 WT1      1526     TIP3     OH2      OT      -0.834000       15.9994           0
      5324 WT1      1526     TIP3     H1       HT       0.417000        1.0080           0
      5325 WT1      1526     TIP3     H2       HT       0.417000        1.0080           0
      5326 WT1      1527     TIP3     OH2      OT      -0.834000       15.9994           0
      5327 WT1      1527     TIP3     H1       HT       0.417000        1.0080           0
      5328 WT1      1527     TIP3     H2       HT       0.417000        1.0080           0
      5329 WT1      1528     TIP3     OH2      OT      -0.834000       15.9994           0
      5330 WT1      1528     TIP3     H1       HT       0.417000        1.0080           0
      5331 WT1      1528     TIP3     H2       HT       0.417000        1.0080           0
      5332 WT1      1529     TIP3     OH2      OT      -0.834000       15.9994           0
      5333 WT1      1529     TIP3     H1       HT       0.417000        1.0080           0
      5334 WT1      1529     TIP3     H2       HT       0.417000        1.0080           0
      5335 WT1      1530     TIP3     OH2      OT      -0.834000       15.9994           0
      5336 WT1      1530     TIP3     H1       HT       0.417000        1.0080           0
      5337 WT1      1530     TIP3     H2       HT       0.417000        1.0080           0
      5338 WT1      1531     TIP3     OH2      OT      -0.834000       15.9994           0
      5339 WT1      1531     TIP3     H1       HT       0.417000        1.0080           0
      5340 WT1      1531     TIP3     H2       HT       0.417000        1.0080           0
      5341 WT1      1532     TIP3     OH2      OT      -0.834000       15.9994           0
      5342 WT1      1532     TIP3     H1       HT       0.417000        1.0080           0
      5343 WT1      1532     TIP3     H2       HT       0.417000        1.0080           0
      5344 WT1      1533     TIP3     OH2      OT      -0.834000       15.9994           0
      5345 WT1      1533     TIP3     H1       HT       0.417000        1.0080           0
      5346 WT1      1533     TIP3     H2       HT       0.417000        1.0080           0
      5347 WT1      1534     TIP3     OH2      OT      -0.834000       15.9994           0
      5348 WT1      1534     TIP3     H1       HT       0.417000        1.0080           0
      5349 WT1      1534     TIP3     H2       HT       0.417000        1.0080           0
      5350 WT1      1536     TIP3     OH2      OT      -0.834000       15.9994           0
      5351 WT1      1536     TIP3     H1       HT       0.417000        1.0080           0
      5352 WT1      1536     TIP3     H2       HT       0.417000        1.0080           0
      5353 WT1      1537     TIP3     OH2      OT      -0.834000       15.9994           0
      5354 WT1      1537     TIP3     H1       HT       0.417000        1.0080           0
      5355 WT1      1537     TIP3     H2       HT       0.417000        1.0080           0
      5356 WT1      1538     TIP3     OH2      OT      -0.834000       15.9994           0
      5357 WT1      1538     TIP3     H1       HT       0.417000        1.0080           0
      5358 WT1      1538     TIP3     H2       HT       0.417000        1.0080           0
      5359 WT1      1539     TIP3     OH2      OT      -0.834000       15.9994           0
      5360 WT1      1539     TIP3     H1       HT       0.417000        1.0080           0
      5361 WT1      1539     TIP3     H2       HT       0.417000        1.0080           0
      5362 WT1      1540     TIP3     OH2      OT      -0.834000       15.9994           0
      5363 WT1      1540     TIP3     H1       HT       0.417000        1.0080           0
      5364 WT1      1540     TIP3     H2       HT       0.417000        1.0080           0
      5365 WT1      1541     TIP3     OH2      OT      -0.834000       15.9994           0
      5366 WT1      1541     TIP3     H1       HT       0.417000        1.0080           0
      5367 WT1      1541     TIP3     H2       HT       0.417000        1.0080           0
      5368 WT1      1542     TIP3     OH2      OT      -0.834000       15.9994           0
      5369 WT1      1542     TIP3     H1       HT       0.417000        1.0080           0
      5370 WT1      1542     TIP3     H2       HT       0.417000        1.0080           0
      5371 WT1      1543     TIP3     OH2      OT      -0.834000       15.9994           0
      5372 WT1      1543     TIP3     H1       HT       0.417000        1.0080           0
      5373 WT1      1543     TIP3     H2       HT       0.417000        1.0080           0
      5374 WT1      1544     TIP3     OH2      OT      -0.834000       15.9994           0
      5375 WT1      1544     TIP3     H1       HT       0.417000        1.0080           0
      5376 WT1      1544     TIP3     H2       HT       0.417000        1.0080           0
      5377 WT1      1545     TIP3     OH2      OT      -0.834000       15.9994           0
      5378 WT1      1545     TIP3     H1       HT       0.417000        1.0080           0
      5379 WT1      1545     TIP3     H2       HT       0.417000        1.0080           0
      5380 WT1      1546     TIP3     OH2      OT      -0.834000       15.9994           0
      5381 WT1      1546     TIP3     H1       HT       0.417000        1.0080           0
      5382 WT1      1546     TIP3     H2       HT       0.417000        1.0080           0
      5383 WT1      1547     TIP3     OH2      OT      -0.834000       15.9994           0
      5384 WT1      1547     TIP3     H1       HT       0.417000        1.0080           0
      5385 WT1      1547     TIP3     H2       HT       0.417000        1.0080           0
      5386 WT1      1548     TIP3     OH2      OT      -0.834000       15.9994           0
      5387 WT1      1548     TIP3     H1       HT       0.417000        1.0080           0
      5388 WT1      1548     TIP3     H2       HT       0.417000        1.0080           0
      5389 WT1      1550     TIP3     OH2      OT      -0.834000       15.9994           0
      5390 WT1      1550     TIP3     H1       HT       0.417000        1.0080           0
      5391 WT1      1550     TIP3     H2       HT       0.417000        1.0080           0
      5392 WT1      1551     TIP3     OH2      OT      -0.834000       15.9994           0
      5393 WT1      1551     TIP3     H1       HT       0.417000        1.0080           0
      5394 WT1      1551     TIP3     H2       HT       0.417000        1.0080           0
      5395 WT1      1552     TIP3     OH2      OT      -0.834000       15.9994           0
      5396 WT1      1552     TIP3     H1       HT       0.417000        1.0080           0
      5397 WT1      1552     TIP3     H2       HT       0.417000        1.0080           0
      5398 WT1      1553     TIP3     OH2      OT      -0.834000       15.9994           0
      5399 WT1      1553     TIP3     H1       HT       0.417000        1.0080           0
      5400 WT1      1553     TIP3     H2       HT       0.417000        1.0080           0
      5401 WT1      1554     TIP3     OH2      OT      -0.834000       15.9994           0
      5402 WT1      1554     TIP3     H1       HT       0.417000        1.0080           0
      5403 WT1      1554     TIP3     H2       HT       0.417000        1.0080           0
      5404 WT1      1555     TIP3     OH2      OT      -0.834000       15.9994           0
      5405 WT1      1555     TIP3     H1       HT       0.417000        1.0080           0
      5406 WT1      1555     TIP3     H2       HT       0.417000        1.0080           0
      5407 WT1      1556     TIP3     OH2      OT      -0.834000       15.9994           0
      5408 WT1      1556     TIP3     H1       HT       0.417000        1.0080           0
      5409 WT1      1556     TIP3     H2       HT       0.417000        1.0080           0
      5410 WT1      1557     TIP3     OH2      OT      -0.834000       15.9994           0
      5411 WT1      1557     TIP3     H1       HT       0.417000        1.0080           0
      5412 WT1      1557     TIP3     H2       HT       0.417000        1.0080           0
      5413 WT1      1558     TIP3     OH2      OT      -0.834000       15.9994           0
      5414 WT1      1558     TIP3     H1       HT       0.417000        1.0080           0
      5415 WT1      1558     TIP3     H2       HT       0.417000        1.0080           0
      5416 WT1      1559     TIP3     OH2      OT      -0.834000       15.9994           0
      5417 WT1      1559     TIP3     H1       HT       0.417000        1.0080           0
      5418 WT1      1559     TIP3     H2       HT       0.417000        1.0080           0
      5419 WT1      1560     TIP3     OH2      OT      -0.834000       15.9994           0
      5420 WT1      1560     TIP3     H1       HT       0.417000        1.0080           0
      5421 WT1      1560     TIP3     H2       HT       0.417000        1.0080           0
      5422 WT1      1561     TIP3     OH2      OT      -0.834000       15.9994           0
      5423 WT1      1561     TIP3     H1       HT       0.417000        1.0080           0
      5424 WT1      1561     TIP3     H2       HT       0.417000        1.0080           0
      5425 WT1      1562     TIP3     OH2      OT      -0.834000       15.9994           0
      5426 WT1      1562     TIP3     H1       HT       0.417000        1.0080           0
      5427 WT1      1562     TIP3     H2       HT       0.417000        1.0080           0
      5428 WT1      1563     TIP3     OH2      OT      -0.834000       15.9994           0
      5429 WT1      1563     TIP3     H1       HT       0.417000        1.0080           0
      5430 WT1      1563     TIP3     H2       HT       0.417000        1.0080           0
      5431 WT1      1564     TIP3     OH2      OT      -0.834000       15.9994           0
      5432 WT1      1564     TIP3     H1       HT       0.417000        1.0080           0
      5433 WT1      1564     TIP3     H2       HT       0.417000        1.0080           0
      5434 WT1      1565     TIP3     OH2      OT      -0.834000       15.9994           0
      5435 WT1      1565     TIP3     H1       HT       0.417000        1.0080           0
      5436 WT1      1565     TIP3     H2       HT       0.417000        1.0080           0
      5437 WT1      1566     TIP3     OH2      OT      -0.834000       15.9994           0
      5438 WT1      1566     TIP3     H1       HT       0.417000        1.0080           0
      5439 WT1      1566     TIP3     H2       HT       0.417000        1.0080           0
      5440 WT1      1567     TIP3     OH2      OT      -0.834000       15.9994           0
      5441 WT1      1567     TIP3     H1       HT       0.417000        1.0080           0
      5442 WT1      1567     TIP3     H2       HT       0.417000        1.0080           0
      5443 WT1      1568     TIP3     OH2      OT      -0.834000       15.9994           0
      5444 WT1      1568     TIP3     H1       HT       0.417000        1.0080           0
      5445 WT1      1568     TIP3     H2       HT       0.417000        1.0080           0
      5446 WT1      1569     TIP3     OH2      OT      -0.834000       15.9994           0
      5447 WT1      1569     TIP3     H1       HT       0.417000        1.0080           0
      5448 WT1      1569     TIP3     H2       HT       0.417000        1.0080           0
      5449 WT1      1570     TIP3     OH2      OT      -0.834000       15.9994           0
      5450 WT1      1570     TIP3     H1       HT       0.417000        1.0080           0
      5451 WT1      1570     TIP3     H2       HT       0.417000        1.0080           0
      5452 WT1      1571     TIP3     OH2      OT      -0.834000       15.9994           0
      5453 WT1      1571     TIP3     H1       HT       0.417000        1.0080           0
      5454 WT1      1571     TIP3     H2       HT       0.417000        1.0080           0
      5455 WT1      1572     TIP3     OH2      OT      -0.834000       15.9994           0
      5456 WT1      1572     TIP3     H1       HT       0.417000        1.0080           0
      5457 WT1      1572     TIP3     H2       HT       0.417000        1.0080           0
      5458 WT1      1574     TIP3     OH2      OT      -0.834000       15.9994           0
      5459 WT1      1574     TIP3     H1       HT       0.417000        1.0080           0
      5460 WT1      1574     TIP3     H2       HT       0.417000        1.0080           0
      5461 WT1      1575     TIP3     OH2      OT      -0.834000       15.9994           0
      5462 WT1      1575     TIP3     H1       HT       0.417000        1.0080           0
      5463 WT1      1575     TIP3     H2       HT       0.417000        1.0080           0
      5464 WT1      1576     TIP3     OH2      OT      -0.834000       15.9994           0
      5465 WT1      1576     TIP3     H1       HT       0.417000        1.0080           0
      5466 WT1      1576     TIP3     H2       HT       0.417000        1.0080           0
      5467 WT1      1577     TIP3     OH2      OT      -0.834000       15.9994           0
      5468 WT1      1577     TIP3     H1       HT       0.417000        1.0080           0
      5469 WT1      1577     TIP3     H2       HT       0.417000        1.0080           0
      5470 WT1      1578     TIP3     OH2      OT      -0.834000       15.9994           0
      5471 WT1      1578     TIP3     H1       HT       0.417000        1.0080           0
      5472 WT1      1578     TIP3     H2       HT       0.417000        1.0080           0
      5473 WT1      1579     TIP3     OH2      OT      -0.834000       15.9994           0
      5474 WT1      1579     TIP3     H1       HT       0.417000        1.0080           0
      5475 WT1      1579     TIP3     H2       HT       0.417000        1.0080           0
      5476 WT1      1580     TIP3     OH2      OT      -0.834000       15.9994           0
      5477 WT1      1580     TIP3     H1       HT       0.417000        1.0080           0
      5478 WT1      1580     TIP3     H2       HT       0.417000        1.0080           0
      5479 WT1      1581     TIP3     OH2      OT      -0.834000       15.9994           0
      5480 WT1      1581     TIP3     H1       HT       0.417000        1.0080           0
      5481 WT1      1581     TIP3     H2       HT       0.417000        1.0080           0
      5482 WT1      1582     TIP3     OH2      OT      -0.834000       15.9994           0
      5483 WT1      1582     TIP3     H1       HT       0.417000        1.0080           0
      5484 WT1      1582     TIP3     H2       HT       0.417000        1.0080           0
      5485 WT1      1583     TIP3     OH2      OT      -0.834000       15.9994           0
      5486 WT1      1583     TIP3     H1       HT       0.417000        1.0080           0
      5487 WT1      1583     TIP3     H2       HT       0.417000        1.0080           0
      5488 WT1      1584     TIP3     OH2      OT      -0.834000       15.9994           0
      5489 WT1      1584     TIP3     H1       HT       0.417000        1.0080           0
      5490 WT1      1584     TIP3     H2       HT       0.417000        1.0080           0
      5491 WT1      1585     TIP3     OH2      OT      -0.834000       15.9994           0
      5492 WT1      1585     TIP3     H1       HT       0.417000        1.0080           0
      5493 WT1      1585     TIP3     H2       HT       0.417000        1.0080           0
      5494 WT1      1586     TIP3     OH2      OT      -0.834000       15.9994           0
      5495 WT1      1586     TIP3     H1       HT       0.417000        1.0080           0
      5496 WT1      1586     TIP3     H2       HT       0.417000        1.0080           0
      5497 WT1      1587     TIP3     OH2      OT      -0.834000       15.9994           0
      5498 WT1      1587     TIP3     H1       HT       0.417000        1.0080           0
      5499 WT1      1587     TIP3     H2       HT       0.417000        1.0080           0
      5500 WT1      1588     TIP3     OH2      OT      -0.834000       15.9994           0
      5501 WT1      1588     TIP3     H1       HT       0.417000        1.0080           0
      5502 WT1      1588     TIP3     H2       HT       0.417000        1.0080           0
      5503 WT1      1589     TIP3     OH2      OT      -0.834000       15.9994           0
      5504 WT1      1589     TIP3     H1       HT       0.417000        1.0080           0
      5505 WT1      1589     TIP3     H2       HT       0.417000        1.0080           0
      5506 WT1      1590     TIP3     OH2      OT      -0.834000       15.9994           0
      5507 WT1      1590     TIP3     H1       HT       0.417000        1.0080           0
      5508 WT1      1590     TIP3     H2       HT       0.417000        1.0080           0
      5509 WT1      1591     TIP3     OH2      OT      -0.834000       15.9994           0
      5510 WT1      1591     TIP3     H1       HT       0.417000        1.0080           0
      5511 WT1      1591     TIP3     H2       HT       0.417000        1.0080           0
      5512 WT1      1592     TIP3     OH2      OT      -0.834000       15.9994           0
      5513 WT1      1592     TIP3     H1       HT       0.417000        1.0080           0
      5514 WT1      1592     TIP3     H2       HT       0.417000        1.0080           0
      5515 WT1      1593     TIP3     OH2      OT      -0.834000       15.9994           0
      5516 WT1      1593     TIP3     H1       HT       0.417000        1.0080           0
      5517 WT1      1593     TIP3     H2       HT       0.417000        1.0080           0
      5518 WT1      1594     TIP3     OH2      OT      -0.834000       15.9994           0
      5519 WT1      1594     TIP3     H1       HT       0.417000        1.0080           0
      5520 WT1      1594     TIP3     H2       HT       0.417000        1.0080           0
      5521 WT1      1595     TIP3     OH2      OT      -0.834000       15.9994           0
      5522 WT1      1595     TIP3     H1       HT       0.417000        1.0080           0
      5523 WT1      1595     TIP3     H2       HT       0.417000        1.0080           0
      5524 WT1      1597     TIP3     OH2      OT      -0.834000       15.9994           0
      5525 WT1      1597     TIP3     H1       HT       0.417000        1.0080           0
      5526 WT1      1597     TIP3     H2       HT       0.417000        1.0080           0
      5527 WT1      1598     TIP3     OH2      OT      -0.834000       15.9994           0
      5528 WT1      1598     TIP3     H1       HT       0.417000        1.0080           0
      5529 WT1      1598     TIP3     H2       HT       0.417000        1.0080           0
      5530 WT1      1599     TIP3     OH2      OT      -0.834000       15.9994           0
      5531 WT1      1599     TIP3     H1       HT       0.417000        1.0080           0
      5532 WT1      1599     TIP3     H2       HT       0.417000        1.0080           0
      5533 WT1      1600     TIP3     OH2      OT      -0.834000       15.9994           0
      5534 WT1      1600     TIP3     H1       HT       0.417000        1.0080           0
      5535 WT1      1600     TIP3     H2       HT       0.417000        1.0080           0
      5536 WT1      1601     TIP3     OH2      OT      -0.834000       15.9994           0
      5537 WT1      1601     TIP3     H1       HT       0.417000        1.0080           0
      5538 WT1      1601     TIP3     H2       HT       0.417000        1.0080           0
      5539 WT1      1602     TIP3     OH2      OT      -0.834000       15.9994           0
      5540 WT1      1602     TIP3     H1       HT       0.417000        1.0080           0
      5541 WT1      1602     TIP3     H2       HT       0.417000        1.0080           0
      5542 WT1      1603     TIP3     OH2      OT      -0.834000       15.9994           0
      5543 WT1      1603     TIP3     H1       HT       0.417000        1.0080           0
      5544 WT1      1603     TIP3     H2       HT       0.417000        1.0080           0
      5545 WT1      1604     TIP3     OH2      OT      -0.834000       15.9994           0
      5546 WT1      1604     TIP3     H1       HT       0.417000        1.0080           0
      5547 WT1      1604     TIP3     H2       HT       0.417000        1.0080           0
      5548 WT1      1605     TIP3     OH2      OT      -0.834000       15.9994           0
      5549 WT1      1605     TIP3     H1       HT       0.417000        1.0080           0
      5550 WT1      1605     TIP3     H2       HT       0.417000        1.0080           0
      5551 WT1      1606     TIP3     OH2      OT      -0.834000       15.9994           0
      5552 WT1      1606     TIP3     H1       HT       0.417000        1.0080           0
      5553 WT1      1606     TIP3     H2       HT       0.417000        1.0080           0
      5554 WT1      1607     TIP3     OH2      OT      -0.834000       15.9994           0
      5555 WT1      1607     TIP3     H1       HT       0.417000        1.0080           0
      5556 WT1      1607     TIP3     H2       HT       0.417000        1.0080           0
      5557 WT1      1608     TIP3     OH2      OT      -0.834000       15.9994           0
      5558 WT1      1608     TIP3     H1       HT       0.417000        1.0080           0
      5559 WT1      1608     TIP3     H2       HT       0.417000        1.0080           0
      5560 WT1      1609     TIP3     OH2      OT      -0.834000       15.9994           0
      5561 WT1      1609     TIP3     H1       HT       0.417000        1.0080           0
      5562 WT1      1609     TIP3     H2       HT       0.417000        1.0080           0
      5563 WT1      1610     TIP3     OH2      OT      -0.834000       15.9994           0
      5564 WT1      1610     TIP3     H1       HT       0.417000        1.0080           0
      5565 WT1      1610     TIP3     H2       HT       0.417000        1.0080           0
      5566 WT1      1611     TIP3     OH2      OT      -0.834000       15.9994           0
      5567 WT1      1611     TIP3     H1       HT       0.417000        1.0080           0
      5568 WT1      1611     TIP3     H2       HT       0.417000        1.0080           0
      5569 WT1      1612     TIP3     OH2      OT      -0.834000       15.9994           0
      5570 WT1      1612     TIP3     H1       HT       0.417000        1.0080           0
      5571 WT1      1612     TIP3     H2       HT       0.417000        1.0080           0
      5572 WT1      1613     TIP3     OH2      OT      -0.834000       15.9994           0
      5573 WT1      1613     TIP3     H1       HT       0.417000        1.0080           0
      5574 WT1      1613     TIP3     H2       HT       0.417000        1.0080           0
      5575 WT1      1614     TIP3     OH2      OT      -0.834000       15.9994           0
      5576 WT1      1614     TIP3     H1       HT       0.417000        1.0080           0
      5577 WT1      1614     TIP3     H2       HT       0.417000        1.0080           0
      5578 WT1      1615     TIP3     OH2      OT      -0.834000       15.9994           0
      5579 WT1      1615     TIP3     H1       HT       0.417000        1.0080           0
      5580 WT1      1615     TIP3     H2       HT       0.417000        1.0080           0
      5581 WT1      1616     TIP3     OH2      OT      -0.834000       15.9994           0
      5582 WT1      1616     TIP3     H1       HT       0.417000        1.0080           0
      5583 WT1      1616     TIP3     H2       HT       0.417000        1.0080           0
      5584 WT1      1617     TIP3     OH2      OT      -0.834000       15.9994           0
      5585 WT1      1617     TIP3     H1       HT       0.417000        1.0080           0
      5586 WT1      1617     TIP3     H2       HT       0.417000        1.0080           0
      5587 WT1      1618     TIP3     OH2      OT      -0.834000       15.9994           0
      5588 WT1      1618     TIP3     H1       HT       0.417000        1.0080           0
      5589 WT1      1618     TIP3     H2       HT       0.417000        1.0080           0
      5590 WT1      1619     TIP3     OH2      OT      -0.834000       15.9994           0
      5591 WT1      1619     TIP3     H1       HT       0.417000        1.0080           0
      5592 WT1      1619     TIP3     H2       HT       0.417000        1.0080           0
      5593 WT1      1620     TIP3     OH2      OT      -0.834000       15.9994           0
      5594 WT1      1620     TIP3     H1       HT       0.417000        1.0080           0
      5595 WT1      1620     TIP3     H2       HT       0.417000        1.0080           0
      5596 WT1      1621     TIP3     OH2      OT      -0.834000       15.9994           0
      5597 WT1      1621     TIP3     H1       HT       0.417000        1.0080           0
      5598 WT1      1621     TIP3     H2       HT       0.417000        1.0080           0
      5599 WT1      1622     TIP3     OH2      OT      -0.834000       15.9994           0
      5600 WT1      1622     TIP3     H1       HT       0.417000        1.0080           0
      5601 WT1      1622     TIP3     H2       HT       0.417000        1.0080           0
      5602 WT1      1623     TIP3     OH2      OT      -0.834000       15.9994           0
      5603 WT1      1623     TIP3     H1       HT       0.417000        1.0080           0
      5604 WT1      1623     TIP3     H2       HT       0.417000        1.0080           0
      5605 WT1      1624     TIP3     OH2      OT      -0.834000       15.9994           0
      5606 WT1      1624     TIP3     H1       HT       0.417000        1.0080           0
      5607 WT1      1624     TIP3     H2       HT       0.417000        1.0080           0
      5608 WT1      1625     TIP3     OH2      OT      -0.834000       15.9994           0
      5609 WT1      1625     TIP3     H1       HT       0.417000        1.0080           0
      5610 WT1      1625     TIP3     H2       HT       0.417000        1.0080           0
      5611 WT1      1626     TIP3     OH2      OT      -0.834000       15.9994           0
      5612 WT1      1626     TIP3     H1       HT       0.417000        1.0080           0
      5613 WT1      1626     TIP3     H2       HT       0.417000        1.0080           0
      5614 WT1      1628     TIP3     OH2      OT      -0.834000       15.9994           0
      5615 WT1      1628     TIP3     H1       HT       0.417000        1.0080           0
      5616 WT1      1628     TIP3     H2       HT       0.417000        1.0080           0
      5617 WT1      1629     TIP3     OH2      OT      -0.834000       15.9994           0
      5618 WT1      1629     TIP3     H1       HT       0.417000        1.0080           0
      5619 WT1      1629     TIP3     H2       HT       0.417000        1.0080           0
      5620 WT1      1630     TIP3     OH2      OT      -0.834000       15.9994           0
      5621 WT1      1630     TIP3     H1       HT       0.417000        1.0080           0
      5622 WT1      1630     TIP3     H2       HT       0.417000        1.0080           0
      5623 WT1      1632     TIP3     OH2      OT      -0.834000       15.9994           0
      5624 WT1      1632     TIP3     H1       HT       0.417000        1.0080           0
      5625 WT1      1632     TIP3     H2       HT       0.417000        1.0080           0
      5626 WT1      1633     TIP3     OH2      OT      -0.834000       15.9994           0
      5627 WT1      1633     TIP3     H1       HT       0.417000        1.0080           0
      5628 WT1      1633     TIP3     H2       HT       0.417000        1.0080           0
      5629 WT1      1634     TIP3     OH2      OT      -0.834000       15.9994           0
      5630 WT1      1634     TIP3     H1       HT       0.417000        1.0080           0
      5631 WT1      1634     TIP3     H2       HT       0.417000        1.0080           0
      5632 WT1      1635     TIP3     OH2      OT      -0.834000       15.9994           0
      5633 WT1      1635     TIP3     H1       HT       0.417000        1.0080           0
      5634 WT1      1635     TIP3     H2       HT       0.417000        1.0080           0
      5635 WT1      1636     TIP3     OH2      OT      -0.834000       15.9994           0
      5636 WT1      1636     TIP3     H1       HT       0.417000        1.0080           0
      5637 WT1      1636     TIP3     H2       HT       0.417000        1.0080           0
      5638 WT1      1638     TIP3     OH2      OT      -0.834000       15.9994           0
      5639 WT1      1638     TIP3     H1       HT       0.417000        1.0080           0
      5640 WT1      1638     TIP3     H2       HT       0.417000        1.0080           0
      5641 WT1      1639     TIP3     OH2      OT      -0.834000       15.9994           0
      5642 WT1      1639     TIP3     H1       HT       0.417000        1.0080           0
      5643 WT1      1639     TIP3     H2       HT       0.417000        1.0080           0
      5644 WT1      1640     TIP3     OH2      OT      -0.834000       15.9994           0
      5645 WT1      1640     TIP3     H1       HT       0.417000        1.0080           0
      5646 WT1      1640     TIP3     H2       HT       0.417000        1.0080           0
      5647 WT1      1641     TIP3     OH2      OT      -0.834000       15.9994           0
      5648 WT1      1641     TIP3     H1       HT       0.417000        1.0080           0
      5649 WT1      1641     TIP3     H2       HT       0.417000        1.0080           0
      5650 WT1      1642     TIP3     OH2      OT      -0.834000       15.9994           0
      5651 WT1      1642     TIP3     H1       HT       0.417000        1.0080           0
      5652 WT1      1642     TIP3     H2       HT       0.417000        1.0080           0
      5653 WT1      1643     TIP3     OH2      OT      -0.834000       15.9994           0
      5654 WT1      1643     TIP3     H1       HT       0.417000        1.0080           0
      5655 WT1      1643     TIP3     H2       HT       0.417000        1.0080           0
      5656 WT1      1644     TIP3     OH2      OT      -0.834000       15.9994           0
      5657 WT1      1644     TIP3     H1       HT       0.417000        1.0080           0
      5658 WT1      1644     TIP3     H2       HT       0.417000        1.0080           0
      5659 WT1      1645     TIP3     OH2      OT      -0.834000       15.9994           0
      5660 WT1      1645     TIP3     H1       HT       0.417000        1.0080           0
      5661 WT1      1645     TIP3     H2       HT       0.417000        1.0080           0
      5662 WT1      1646     TIP3     OH2      OT      -0.834000       15.9994           0
      5663 WT1      1646     TIP3     H1       HT       0.417000        1.0080           0
      5664 WT1      1646     TIP3     H2       HT       0.417000        1.0080           0
      5665 WT1      1647     TIP3     OH2      OT      -0.834000       15.9994           0
      5666 WT1      1647     TIP3     H1       HT       0.417000        1.0080           0
      5667 WT1      1647     TIP3     H2       HT       0.417000        1.0080           0
      5668 WT1      1648     TIP3     OH2      OT      -0.834000       15.9994           0
      5669 WT1      1648     TIP3     H1       HT       0.417000        1.0080           0
      5670 WT1      1648     TIP3     H2       HT       0.417000        1.0080           0
      5671 WT1      1649     TIP3     OH2      OT      -0.834000       15.9994           0
      5672 WT1      1649     TIP3     H1       HT       0.417000        1.0080           0
      5673 WT1      1649     TIP3     H2       HT       0.417000        1.0080           0
      5674 WT1      1651     TIP3     OH2      OT      -0.834000       15.9994           0
      5675 WT1      1651     TIP3     H1       HT       0.417000        1.0080           0
      5676 WT1      1651     TIP3     H2       HT       0.417000        1.0080           0
      5677 WT1      1652     TIP3     OH2      OT      -0.834000       15.9994           0
      5678 WT1      1652     TIP3     H1       HT       0.417000        1.0080           0
      5679 WT1      1652     TIP3     H2       HT       0.417000        1.0080           0
      5680 WT1      1653     TIP3     OH2      OT      -0.834000       15.9994           0
      5681 WT1      1653     TIP3     H1       HT       0.417000        1.0080           0
      5682 WT1      1653     TIP3     H2       HT       0.417000        1.0080           0
      5683 WT1      1654     TIP3     OH2      OT      -0.834000       15.9994           0
      5684 WT1      1654     TIP3     H1       HT       0.417000        1.0080           0
      5685 WT1      1654     TIP3     H2       HT       0.417000        1.0080           0
      5686 WT1      1655     TIP3     OH2      OT      -0.834000       15.9994           0
      5687 WT1      1655     TIP3     H1       HT       0.417000        1.0080           0
      5688 WT1      1655     TIP3     H2       HT       0.417000        1.0080           0
      5689 WT1      1656     TIP3     OH2      OT      -0.834000       15.9994           0
      5690 WT1      1656     TIP3     H1       HT       0.417000        1.0080           0
      5691 WT1      1656     TIP3     H2       HT       0.417000        1.0080           0
      5692 WT1      1657     TIP3     OH2      OT      -0.834000       15.9994           0
      5693 WT1      1657     TIP3     H1       HT       0.417000        1.0080           0
      5694 WT1      1657     TIP3     H2       HT       0.417000        1.0080           0
      5695 WT1      1658     TIP3     OH2      OT      -0.834000       15.9994           0
      5696 WT1      1658     TIP3     H1       HT       0.417000        1.0080           0
      5697 WT1      1658     TIP3     H2       HT       0.417000        1.0080           0
      5698 WT1      1659     TIP3     OH2      OT      -0.834000       15.9994           0
      5699 WT1      1659     TIP3     H1       HT       0.417000        1.0080           0
      5700 WT1      1659     TIP3     H2       HT       0.417000        1.0080           0
      5701 WT1      1660     TIP3     OH2      OT      -0.834000       15.9994           0
      5702 WT1      1660     TIP3     H1       HT       0.417000        1.0080           0
      5703 WT1      1660     TIP3     H2       HT       0.417000        1.0080           0
      5704 WT1      1661     TIP3     OH2      OT      -0.834000       15.9994           0
      5705 WT1      1661     TIP3     H1       HT       0.417000        1.0080           0
      5706 WT1      1661     TIP3     H2       HT       0.417000        1.0080           0
      5707 WT1      1663     TIP3     OH2      OT      -0.834000       15.9994           0
      5708 WT1      1663     TIP3     H1       HT       0.417000        1.0080           0
      5709 WT1      1663     TIP3     H2       HT       0.417000        1.0080           0
      5710 WT1      1664     TIP3     OH2      OT      -0.834000       15.9994           0
      5711 WT1      1664     TIP3     H1       HT       0.417000        1.0080           0
      5712 WT1      1664     TIP3     H2       HT       0.417000        1.0080           0
      5713 WT1      1665     TIP3     OH2      OT      -0.834000       15.9994           0
      5714 WT1      1665     TIP3     H1       HT       0.417000        1.0080           0
      5715 WT1      1665     TIP3     H2       HT       0.417000        1.0080           0
      5716 WT1      1666     TIP3     OH2      OT      -0.834000       15.9994           0
      5717 WT1      1666     TIP3     H1       HT       0.417000        1.0080           0
      5718 WT1      1666     TIP3     H2       HT       0.417000        1.0080           0
      5719 WT1      1667     TIP3     OH2      OT      -0.834000       15.9994           0
      5720 WT1      1667     TIP3     H1       HT       0.417000        1.0080           0
      5721 WT1      1667     TIP3     H2       HT       0.417000        1.0080           0
      5722 WT1      1668     TIP3     OH2      OT      -0.834000       15.9994           0
      5723 WT1      1668     TIP3     H1       HT       0.417000        1.0080           0
      5724 WT1      1668     TIP3     H2       HT       0.417000        1.0080           0
      5725 WT1      1669     TIP3     OH2      OT      -0.834000       15.9994           0
      5726 WT1      1669     TIP3     H1       HT       0.417000        1.0080           0
      5727 WT1      1669     TIP3     H2       HT       0.417000        1.0080           0
      5728 WT1      1670     TIP3     OH2      OT      -0.834000       15.9994           0
      5729 WT1      1670     TIP3     H1       HT       0.417000        1.0080           0
      5730 WT1      1670     TIP3     H2       HT       0.417000        1.0080           0
      5731 WT1      1671     TIP3     OH2      OT      -0.834000       15.9994           0
      5732 WT1      1671     TIP3     H1       HT       0.417000        1.0080           0
      5733 WT1      1671     TIP3     H2       HT       0.417000        1.0080           0
      5734 WT1      1672     TIP3     OH2      OT      -0.834000       15.9994           0
      5735 WT1      1672     TIP3     H1       HT       0.417000        1.0080           0
      5736 WT1      1672     TIP3     H2       HT       0.417000        1.0080           0
      5737 WT1      1673     TIP3     OH2      OT      -0.834000       15.9994           0
      5738 WT1      1673     TIP3     H1       HT       0.417000        1.0080           0
      5739 WT1      1673     TIP3     H2       HT       0.417000        1.0080           0
      5740 WT1      1674     TIP3     OH2      OT      -0.834000       15.9994           0
      5741 WT1      1674     TIP3     H1       HT       0.417000        1.0080           0
      5742 WT1      1674     TIP3     H2       HT       0.417000        1.0080           0
      5743 WT1      1675     TIP3     OH2      OT      -0.834000       15.9994           0
      5744 WT1      1675     TIP3     H1       HT       0.417000        1.0080           0
      5745 WT1      1675     TIP3     H2       HT       0.417000        1.0080           0
      5746 WT1      1676     TIP3     OH2      OT      -0.834000       15.9994           0
      5747 WT1      1676     TIP3     H1       HT       0.417000        1.0080           0
      5748 WT1      1676     TIP3     H2       HT       0.417000        1.0080           0
      5749 WT1      1677     TIP3     OH2      OT      -0.834000       15.9994           0
      5750 WT1      1677     TIP3     H1       HT       0.417000        1.0080           0
      5751 WT1      1677     TIP3     H2       HT       0.417000        1.0080           0
      5752 WT1      1678     TIP3     OH2      OT      -0.834000       15.9994           0
      5753 WT1      1678     TIP3     H1       HT       0.417000        1.0080           0
      5754 WT1      1678     TIP3     H2       HT       0.417000        1.0080           0
      5755 WT1      1679     TIP3     OH2      OT      -0.834000       15.9994           0
      5756 WT1      1679     TIP3     H1       HT       0.417000        1.0080           0
      5757 WT1      1679     TIP3     H2       HT       0.417000        1.0080           0
      5758 WT1      1680     TIP3     OH2      OT      -0.834000       15.9994           0
      5759 WT1      1680     TIP3     H1       HT       0.417000        1.0080           0
      5760 WT1      1680     TIP3     H2       HT       0.417000        1.0080           0
      5761 WT1      1681     TIP3     OH2      OT      -0.834000       15.9994           0
      5762 WT1      1681     TIP3     H1       HT       0.417000        1.0080           0
      5763 WT1      1681     TIP3     H2       HT       0.417000        1.0080           0
      5764 WT1      1682     TIP3     OH2      OT      -0.834000       15.9994           0
      5765 WT1      1682     TIP3     H1       HT       0.417000        1.0080           0
      5766 WT1      1682     TIP3     H2       HT       0.417000        1.0080           0
      5767 WT1      1683     TIP3     OH2      OT      -0.834000       15.9994           0
      5768 WT1      1683     TIP3     H1       HT       0.417000        1.0080           0
      5769 WT1      1683     TIP3     H2       HT       0.417000        1.0080           0
      5770 WT1      1684     TIP3     OH2      OT      -0.834000       15.9994           0
      5771 WT1      1684     TIP3     H1       HT       0.417000        1.0080           0
      5772 WT1      1684     TIP3     H2       HT       0.417000        1.0080           0
      5773 WT1      1685     TIP3     OH2      OT      -0.834000       15.9994           0
      5774 WT1      1685     TIP3     H1       HT       0.417000        1.0080           0
      5775 WT1      1685     TIP3     H2       HT       0.417000        1.0080           0
      5776 WT1      1686     TIP3     OH2      OT      -0.834000       15.9994           0
      5777 WT1      1686     TIP3     H1       HT       0.417000        1.0080           0
      5778 WT1      1686     TIP3     H2       HT       0.417000        1.0080           0
      5779 WT1      1687     TIP3     OH2      OT      -0.834000       15.9994           0
      5780 WT1      1687     TIP3     H1       HT       0.417000        1.0080           0
      5781 WT1      1687     TIP3     H2       HT       0.417000        1.0080           0
      5782 WT1      1688     TIP3     OH2      OT      -0.834000       15.9994           0
      5783 WT1      1688     TIP3     H1       HT       0.417000        1.0080           0
      5784 WT1      1688     TIP3     H2       HT       0.417000        1.0080           0
      5785 WT1      1689     TIP3     OH2      OT      -0.834000       15.9994           0
      5786 WT1      1689     TIP3     H1       HT       0.417000        1.0080           0
      5787 WT1      1689     TIP3     H2       HT       0.417000        1.0080           0
      5788 WT1      1690     TIP3     OH2      OT      -0.834000       15.9994           0
      5789 WT1      1690     TIP3     H1       HT       0.417000        1.0080           0
      5790 WT1      1690     TIP3     H2       HT       0.417000        1.0080           0
      5791 WT1      1691     TIP3     OH2      OT      -0.834000       15.9994           0
      5792 WT1      1691     TIP3     H1       HT       0.417000        1.0080           0
      5793 WT1      1691     TIP3     H2       HT       0.417000        1.0080           0
      5794 WT1      1692     TIP3     OH2      OT      -0.834000       15.9994           0
      5795 WT1      1692     TIP3     H1       HT       0.417000        1.0080           0
      5796 WT1      1692     TIP3     H2       HT       0.417000        1.0080           0
      5797 WT1      1693     TIP3     OH2      OT      -0.834000       15.9994           0
      5798 WT1      1693     TIP3     H1       HT       0.417000        1.0080           0
      5799 WT1      1693     TIP3     H2       HT       0.417000        1.0080           0
      5800 WT1      1694     TIP3     OH2      OT      -0.834000       15.9994           0
      5801 WT1      1694     TIP3     H1       HT       0.417000        1.0080           0
      5802 WT1      1694     TIP3     H2       HT       0.417000        1.0080           0
      5803 WT1      1695     TIP3     OH2      OT      -0.834000       15.9994           0
      5804 WT1      1695     TIP3     H1       HT       0.417000        1.0080           0
      5805 WT1      1695     TIP3     H2       HT       0.417000        1.0080           0
      5806 WT1      1696     TIP3     OH2      OT      -0.834000       15.9994           0
      5807 WT1      1696     TIP3     H1       HT       0.417000        1.0080           0
      5808 WT1      1696     TIP3     H2       HT       0.417000        1.0080           0
      5809 WT1      1697     TIP3     OH2      OT      -0.834000       15.9994           0
      5810 WT1      1697     TIP3     H1       HT       0.417000        1.0080           0
      5811 WT1      1697     TIP3     H2       HT       0.417000        1.0080           0
      5812 WT1      1698     TIP3     OH2      OT      -0.834000       15.9994           0
      5813 WT1      1698     TIP3     H1       HT       0.417000        1.0080           0
      5814 WT1      1698     TIP3     H2       HT       0.417000        1.0080           0
      5815 WT1      1699     TIP3     OH2      OT      -0.834000       15.9994           0
      5816 WT1      1699     TIP3     H1       HT       0.417000        1.0080           0
      5817 WT1      1699     TIP3     H2       HT       0.417000        1.0080           0
      5818 WT1      1700     TIP3     OH2      OT      -0.834000       15.9994           0
      5819 WT1      1700     TIP3     H1       HT       0.417000        1.0080           0
      5820 WT1      1700     TIP3     H2       HT       0.417000        1.0080           0
      5821 WT1      1701     TIP3     OH2      OT      -0.834000       15.9994           0
      5822 WT1      1701     TIP3     H1       HT       0.417000        1.0080           0
      5823 WT1      1701     TIP3     H2       HT       0.417000        1.0080           0
      5824 WT1      1702     TIP3     OH2      OT      -0.834000       15.9994           0
      5825 WT1      1702     TIP3     H1       HT       0.417000        1.0080           0
      5826 WT1      1702     TIP3     H2       HT       0.417000        1.0080           0
      5827 WT1      1703     TIP3     OH2      OT      -0.834000       15.9994           0
      5828 WT1      1703     TIP3     H1       HT       0.417000        1.0080           0
      5829 WT1      1703     TIP3     H2       HT       0.417000        1.0080           0
      5830 WT1      1704     TIP3     OH2      OT      -0.834000       15.9994           0
      5831 WT1      1704     TIP3     H1       HT       0.417000        1.0080           0
      5832 WT1      1704     TIP3     H2       HT       0.417000        1.0080           0
      5833 WT1      1705     TIP3     OH2      OT      -0.834000       15.9994           0
      5834 WT1      1705     TIP3     H1       HT       0.417000        1.0080           0
      5835 WT1      1705     TIP3     H2       HT       0.417000        1.0080           0
      5836 WT1      1706     TIP3     OH2      OT      -0.834000       15.9994           0
      5837 WT1      1706     TIP3     H1       HT       0.417000        1.0080           0
      5838 WT1      1706     TIP3     H2       HT       0.417000        1.0080           0
      5839 WT1      1707     TIP3     OH2      OT      -0.834000       15.9994           0
      5840 WT1      1707     TIP3     H1       HT       0.417000        1.0080           0
      5841 WT1      1707     TIP3     H2       HT       0.417000        1.0080           0
      5842 WT1      1708     TIP3     OH2      OT      -0.834000       15.9994           0
      5843 WT1      1708     TIP3     H1       HT       0.417000        1.0080           0
      5844 WT1      1708     TIP3     H2       HT       0.417000        1.0080           0
      5845 WT1      1709     TIP3     OH2      OT      -0.834000       15.9994           0
      5846 WT1      1709     TIP3     H1       HT       0.417000        1.0080           0
      5847 WT1      1709     TIP3     H2       HT       0.417000        1.0080           0
      5848 WT1      1710     TIP3     OH2      OT      -0.834000       15.9994           0
      5849 WT1      1710     TIP3     H1       HT       0.417000        1.0080           0
      5850 WT1      1710     TIP3     H2       HT       0.417000        1.0080           0
      5851 WT1      1711     TIP3     OH2      OT      -0.834000       15.9994           0
      5852 WT1      1711     TIP3     H1       HT       0.417000        1.0080           0
      5853 WT1      1711     TIP3     H2       HT       0.417000        1.0080           0
      5854 WT1      1713     TIP3     OH2      OT      -0.834000       15.9994           0
      5855 WT1      1713     TIP3     H1       HT       0.417000        1.0080           0
      5856 WT1      1713     TIP3     H2       HT       0.417000        1.0080           0
      5857 WT1      1714     TIP3     OH2      OT      -0.834000       15.9994           0
      5858 WT1      1714     TIP3     H1       HT       0.417000        1.0080           0
      5859 WT1      1714     TIP3     H2       HT       0.417000        1.0080           0
      5860 WT1      1715     TIP3     OH2      OT      -0.834000       15.9994           0
      5861 WT1      1715     TIP3     H1       HT       0.417000        1.0080           0
      5862 WT1      1715     TIP3     H2       HT       0.417000        1.0080           0
      5863 WT1      1716     TIP3     OH2      OT      -0.834000       15.9994           0
      5864 WT1      1716     TIP3     H1       HT       0.417000        1.0080           0
      5865 WT1      1716     TIP3     H2       HT       0.417000        1.0080           0
      5866 WT1      1717     TIP3     OH2      OT      -0.834000       15.9994           0
      5867 WT1      1717     TIP3     H1       HT       0.417000        1.0080           0
      5868 WT1      1717     TIP3     H2       HT       0.417000        1.0080           0
      5869 WT1      1718     TIP3     OH2      OT      -0.834000       15.9994           0
      5870 WT1      1718     TIP3     H1       HT       0.417000        1.0080           0
      5871 WT1      1718     TIP3     H2       HT       0.417000        1.0080           0
      5872 WT1      1719     TIP3     OH2      OT      -0.834000       15.9994           0
      5873 WT1      1719     TIP3     H1       HT       0.417000        1.0080           0
      5874 WT1      1719     TIP3     H2       HT       0.417000        1.0080           0
      5875 WT1      1720     TIP3     OH2      OT      -0.834000       15.9994           0
      5876 WT1      1720     TIP3     H1       HT       0.417000        1.0080           0
      5877 WT1      1720     TIP3     H2       HT       0.417000        1.0080           0
      5878 WT1      1721     TIP3     OH2      OT      -0.834000       15.9994           0
      5879 WT1      1721     TIP3     H1       HT       0.417000        1.0080           0
      5880 WT1      1721     TIP3     H2       HT       0.417000        1.0080           0
      5881 WT1      1722     TIP3     OH2      OT      -0.834000       15.9994           0
      5882 WT1      1722     TIP3     H1       HT       0.417000        1.0080           0
      5883 WT1      1722     TIP3     H2       HT       0.417000        1.0080           0
      5884 WT1      1723     TIP3     OH2      OT      -0.834000       15.9994           0
      5885 WT1      1723     TIP3     H1       HT       0.417000        1.0080           0
      5886 WT1      1723     TIP3     H2       HT       0.417000        1.0080           0
      5887 WT1      1724     TIP3     OH2      OT      -0.834000       15.9994           0
      5888 WT1      1724     TIP3     H1       HT       0.417000        1.0080           0
      5889 WT1      1724     TIP3     H2       HT       0.417000        1.0080           0
      5890 WT1      1725     TIP3     OH2      OT      -0.834000       15.9994           0
      5891 WT1      1725     TIP3     H1       HT       0.417000        1.0080           0
      5892 WT1      1725     TIP3     H2       HT       0.417000        1.0080           0
      5893 WT1      1726     TIP3     OH2      OT      -0.834000       15.9994           0
      5894 WT1      1726     TIP3     H1       HT       0.417000        1.0080           0
      5895 WT1      1726     TIP3     H2       HT       0.417000        1.0080           0
      5896 WT1      1727     TIP3     OH2      OT      -0.834000       15.9994           0
      5897 WT1      1727     TIP3     H1       HT       0.417000        1.0080           0
      5898 WT1      1727     TIP3     H2       HT       0.417000        1.0080           0
      5899 WT1      1728     TIP3     OH2      OT      -0.834000       15.9994           0
      5900 WT1      1728     TIP3     H1       HT       0.417000        1.0080           0
      5901 WT1      1728     TIP3     H2       HT       0.417000        1.0080           0
      5902 WT1      1729     TIP3     OH2      OT      -0.834000       15.9994           0
      5903 WT1      1729     TIP3     H1       HT       0.417000        1.0080           0
      5904 WT1      1729     TIP3     H2       HT       0.417000        1.0080           0
      5905 WT1      1730     TIP3     OH2      OT      -0.834000       15.9994           0
      5906 WT1      1730     TIP3     H1       HT       0.417000        1.0080           0
      5907 WT1      1730     TIP3     H2       HT       0.417000        1.0080           0
      5908 WT1      1731     TIP3     OH2      OT      -0.834000       15.9994           0
      5909 WT1      1731     TIP3     H1       HT       0.417000        1.0080           0
      5910 WT1      1731     TIP3     H2       HT       0.417000        1.0080           0
      5911 WT1      1732     TIP3     OH2      OT      -0.834000       15.9994           0
      5912 WT1      1732     TIP3     H1       HT       0.417000        1.0080           0
      5913 WT1      1732     TIP3     H2       HT       0.417000        1.0080           0
      5914 WT1      1733     TIP3     OH2      OT      -0.834000       15.9994           0
      5915 WT1      1733     TIP3     H1       HT       0.417000        1.0080           0
      5916 WT1      1733     TIP3     H2       HT       0.417000        1.0080           0
      5917 WT1      1734     TIP3     OH2      OT      -0.834000       15.9994           0
      5918 WT1      1734     TIP3     H1       HT       0.417000        1.0080           0
      5919 WT1      1734     TIP3     H2       HT       0.417000        1.0080           0
      5920 WT1      1735     TIP3     OH2      OT      -0.834000       15.9994           0
      5921 WT1      1735     TIP3     H1       HT       0.417000        1.0080           0
      5922 WT1      1735     TIP3     H2       HT       0.417000        1.0080           0
      5923 WT1      1736     TIP3     OH2      OT      -0.834000       15.9994           0
      5924 WT1      1736     TIP3     H1       HT       0.417000        1.0080           0
      5925 WT1      1736     TIP3     H2       HT       0.417000        1.0080           0
      5926 WT1      1737     TIP3     OH2      OT      -0.834000       15.9994           0
      5927 WT1      1737     TIP3     H1       HT       0.417000        1.0080           0
      5928 WT1      1737     TIP3     H2       HT       0.417000        1.0080           0
      5929 WT1      1738     TIP3     OH2      OT      -0.834000       15.9994           0
      5930 WT1      1738     TIP3     H1       HT       0.417000        1.0080           0
      5931 WT1      1738     TIP3     H2       HT       0.417000        1.0080           0
      5932 WT1      1739     TIP3     OH2      OT      -0.834000       15.9994           0
      5933 WT1      1739     TIP3     H1       HT       0.417000        1.0080           0
      5934 WT1      1739     TIP3     H2       HT       0.417000        1.0080           0
      5935 WT1      1741     TIP3     OH2      OT      -0.834000       15.9994           0
      5936 WT1      1741     TIP3     H1       HT       0.417000        1.0080           0
      5937 WT1      1741     TIP3     H2       HT       0.417000        1.0080           0
      5938 WT1      1742     TIP3     OH2      OT      -0.834000       15.9994           0
      5939 WT1      1742     TIP3     H1       HT       0.417000        1.0080           0
      5940 WT1      1742     TIP3     H2       HT       0.417000        1.0080           0
      5941 WT1      1743     TIP3     OH2      OT      -0.834000       15.9994           0
      5942 WT1      1743     TIP3     H1       HT       0.417000        1.0080           0
      5943 WT1      1743     TIP3     H2       HT       0.417000        1.0080           0
      5944 WT1      1744     TIP3     OH2      OT      -0.834000       15.9994           0
      5945 WT1      1744     TIP3     H1       HT       0.417000        1.0080           0
      5946 WT1      1744     TIP3     H2       HT       0.417000        1.0080           0
      5947 WT1      1745     TIP3     OH2      OT      -0.834000       15.9994           0
      5948 WT1      1745     TIP3     H1       HT       0.417000        1.0080           0
      5949 WT1      1745     TIP3     H2       HT       0.417000        1.0080           0
      5950 WT1      1746     TIP3     OH2      OT      -0.834000       15.9994           0
      5951 WT1      1746     TIP3     H1       HT       0.417000        1.0080           0
      5952 WT1      1746     TIP3     H2       HT       0.417000        1.0080           0
      5953 WT1      1747     TIP3     OH2      OT      -0.834000       15.9994           0
      5954 WT1      1747     TIP3     H1       HT       0.417000        1.0080           0
      5955 WT1      1747     TIP3     H2       HT       0.417000        1.0080           0
      5956 WT1      1748     TIP3     OH2      OT      -0.834000       15.9994           0
      5957 WT1      1748     TIP3     H1       HT       0.417000        1.0080           0
      5958 WT1      1748     TIP3     H2       HT       0.417000        1.0080           0
      5959 WT1      1749     TIP3     OH2      OT      -0.834000       15.9994           0
      5960 WT1      1749     TIP3     H1       HT       0.417000        1.0080           0
      5961 WT1      1749     TIP3     H2       HT       0.417000        1.0080           0
      5962 WT1      1750     TIP3     OH2      OT      -0.834000       15.9994           0
      5963 WT1      1750     TIP3     H1       HT       0.417000        1.0080           0
      5964 WT1      1750     TIP3     H2       HT       0.417000        1.0080           0
      5965 WT1      1751     TIP3     OH2      OT      -0.834000       15.9994           0
      5966 WT1      1751     TIP3     H1       HT       0.417000        1.0080           0
      5967 WT1      1751     TIP3     H2       HT       0.417000        1.0080           0
      5968 WT1      1752     TIP3     OH2      OT      -0.834000       15.9994           0
      5969 WT1      1752     TIP3     H1       HT       0.417000        1.0080           0
      5970 WT1      1752     TIP3     H2       HT       0.417000        1.0080           0
      5971 WT1      1753     TIP3     OH2      OT      -0.834000       15.9994           0
      5972 WT1      1753     TIP3     H1       HT       0.417000        1.0080           0
      5973 WT1      1753     TIP3     H2       HT       0.417000        1.0080           0
      5974 WT1      1754     TIP3     OH2      OT      -0.834000       15.9994           0
      5975 WT1      1754     TIP3     H1       HT       0.417000        1.0080           0
      5976 WT1      1754     TIP3     H2       HT       0.417000        1.0080           0
      5977 WT1      1755     TIP3     OH2      OT      -0.834000       15.9994           0
      5978 WT1      1755     TIP3     H1       HT       0.417000        1.0080           0
      5979 WT1      1755     TIP3     H2       HT       0.417000        1.0080           0
      5980 WT1      1756     TIP3     OH2      OT      -0.834000       15.9994           0
      5981 WT1      1756     TIP3     H1       HT       0.417000        1.0080           0
      5982 WT1      1756     TIP3     H2       HT       0.417000        1.0080           0
      5983 WT1      1757     TIP3     OH2      OT      -0.834000       15.9994           0
      5984 WT1      1757     TIP3     H1       HT       0.417000        1.0080           0
      5985 WT1      1757     TIP3     H2       HT       0.417000        1.0080           0
      5986 WT1      1758     TIP3     OH2      OT      -0.834000       15.9994           0
      5987 WT1      1758     TIP3     H1       HT       0.417000        1.0080           0
      5988 WT1      1758     TIP3     H2       HT       0.417000        1.0080           0
      5989 WT1      1759     TIP3     OH2      OT      -0.834000       15.9994           0
      5990 WT1      1759     TIP3     H1       HT       0.417000        1.0080           0
      5991 WT1      1759     TIP3     H2       HT       0.417000        1.0080           0
      5992 WT1      1760     TIP3     OH2      OT      -0.834000       15.9994           0
      5993 WT1      1760     TIP3     H1       HT       0.417000        1.0080           0
      5994 WT1      1760     TIP3     H2       HT       0.417000        1.0080           0
      5995 WT1      1761     TIP3     OH2      OT      -0.834000       15.9994           0
      5996 WT1      1761     TIP3     H1       HT       0.417000        1.0080           0
      5997 WT1      1761     TIP3     H2       HT       0.417000        1.0080           0
      5998 WT1      1762     TIP3     OH2      OT      -0.834000       15.9994           0
      5999 WT1      1762     TIP3     H1       HT       0.417000        1.0080           0
      6000 WT1      1762     TIP3     H2       HT       0.417000        1.0080           0
      6001 WT1      1763     TIP3     OH2      OT      -0.834000       15.9994           0
      6002 WT1      1763     TIP3     H1       HT       0.417000        1.0080           0
      6003 WT1      1763     TIP3     H2       HT       0.417000        1.0080           0
      6004 WT1      1764     TIP3     OH2      OT      -0.834000       15.9994           0
      6005 WT1      1764     TIP3     H1       HT       0.417000        1.0080           0
      6006 WT1      1764     TIP3     H2       HT       0.417000        1.0080           0
      6007 WT1      1765     TIP3     OH2      OT      -0.834000       15.9994           0
      6008 WT1      1765     TIP3     H1       HT       0.417000        1.0080           0
      6009 WT1      1765     TIP3     H2       HT       0.417000        1.0080           0
      6010 WT1      1766     TIP3     OH2      OT      -0.834000       15.9994           0
      6011 WT1      1766     TIP3     H1       HT       0.417000        1.0080           0
      6012 WT1      1766     TIP3     H2       HT       0.417000        1.0080           0
      6013 WT1      1767     TIP3     OH2      OT      -0.834000       15.9994           0
      6014 WT1      1767     TIP3     H1       HT       0.417000        1.0080           0
      6015 WT1      1767     TIP3     H2       HT       0.417000        1.0080           0
      6016 WT1      1768     TIP3     OH2      OT      -0.834000       15.9994           0
      6017 WT1      1768     TIP3     H1       HT       0.417000        1.0080           0
      6018 WT1      1768     TIP3     H2       HT       0.417000        1.0080           0
      6019 WT1      1769     TIP3     OH2      OT      -0.834000       15.9994           0
      6020 WT1      1769     TIP3     H1       HT       0.417000        1.0080           0
      6021 WT1      1769     TIP3     H2       HT       0.417000        1.0080           0
      6022 WT1      1770     TIP3     OH2      OT      -0.834000       15.9994           0
      6023 WT1      1770     TIP3     H1       HT       0.417000        1.0080           0
      6024 WT1      1770     TIP3     H2       HT       0.417000        1.0080           0
      6025 WT1      1771     TIP3     OH2      OT      -0.834000       15.9994           0
      6026 WT1      1771     TIP3     H1       HT       0.417000        1.0080           0
      6027 WT1      1771     TIP3     H2       HT       0.417000        1.0080           0
      6028 WT1      1772     TIP3     OH2      OT      -0.834000       15.9994           0
      6029 WT1      1772     TIP3     H1       HT       0.417000        1.0080           0
      6030 WT1      1772     TIP3     H2       HT       0.417000        1.0080           0
      6031 WT1      1773     TIP3     OH2      OT      -0.834000       15.9994           0
      6032 WT1      1773     TIP3     H1       HT       0.417000        1.0080           0
      6033 WT1      1773     TIP3     H2       HT       0.417000        1.0080           0
      6034 WT1      1774     TIP3     OH2      OT      -0.834000       15.9994           0
      6035 WT1      1774     TIP3     H1       HT       0.417000        1.0080           0
      6036 WT1      1774     TIP3     H2       HT       0.417000        1.0080           0
      6037 WT1      1775     TIP3     OH2      OT      -0.834000       15.9994           0
      6038 WT1      1775     TIP3     H1       HT       0.417000        1.0080           0
      6039 WT1      1775     TIP3     H2       HT       0.417000        1.0080           0
      6040 WT1      1776     TIP3     OH2      OT      -0.834000       15.9994           0
      6041 WT1      1776     TIP3     H1       HT       0.417000        1.0080           0
      6042 WT1      1776     TIP3     H2       HT       0.417000        1.0080           0
      6043 WT1      1777     TIP3     OH2      OT      -0.834000       15.9994           0
      6044 WT1      1777     TIP3     H1       HT       0.417000        1.0080           0
      6045 WT1      1777     TIP3     H2       HT       0.417000        1.0080           0
      6046 WT1      1778     TIP3     OH2      OT      -0.834000       15.9994           0
      6047 WT1      1778     TIP3     H1       HT       0.417000        1.0080           0
      6048 WT1      1778     TIP3     H2       HT       0.417000        1.0080           0
      6049 WT1      1779     TIP3     OH2      OT      -0.834000       15.9994           0
      6050 WT1      1779     TIP3     H1       HT       0.417000        1.0080           0
      6051 WT1      1779     TIP3     H2       HT       0.417000        1.0080           0
      6052 WT1      1780     TIP3     OH2      OT      -0.834000       15.9994           0
      6053 WT1      1780     TIP3     H1       HT       0.417000        1.0080           0
      6054 WT1      1780     TIP3     H2       HT       0.417000        1.0080           0
      6055 WT1      1781     TIP3     OH2      OT      -0.834000       15.9994           0
      6056 WT1      1781     TIP3     H1       HT       0.417000        1.0080           0
      6057 WT1      1781     TIP3     H2       HT       0.417000        1.0080           0
      6058 WT1      1782     TIP3     OH2      OT      -0.834000       15.9994           0
      6059 WT1      1782     TIP3     H1       HT       0.417000        1.0080           0
      6060 WT1      1782     TIP3     H2       HT       0.417000        1.0080           0
      6061 WT1      1783     TIP3     OH2      OT      -0.834000       15.9994           0
      6062 WT1      1783     TIP3     H1       HT       0.417000        1.0080           0
      6063 WT1      1783     TIP3     H2       HT       0.417000        1.0080           0
      6064 WT1      1784     TIP3     OH2      OT      -0.834000       15.9994           0
      6065 WT1      1784     TIP3     H1       HT       0.417000        1.0080           0
      6066 WT1      1784     TIP3     H2       HT       0.417000        1.0080           0
      6067 WT1      1785     TIP3     OH2      OT      -0.834000       15.9994           0
      6068 WT1      1785     TIP3     H1       HT       0.417000        1.0080           0
      6069 WT1      1785     TIP3     H2       HT       0.417000        1.0080           0
      6070 WT1      1786     TIP3     OH2      OT      -0.834000       15.9994           0
      6071 WT1      1786     TIP3     H1       HT       0.417000        1.0080           0
      6072 WT1      1786     TIP3     H2       HT       0.417000        1.0080           0
      6073 WT1      1787     TIP3     OH2      OT      -0.834000       15.9994           0
      6074 WT1      1787     TIP3     H1       HT       0.417000        1.0080           0
      6075 WT1      1787     TIP3     H2       HT       0.417000        1.0080           0
      6076 WT1      1788     TIP3     OH2      OT      -0.834000       15.9994           0
      6077 WT1      1788     TIP3     H1       HT       0.417000        1.0080           0
      6078 WT1      1788     TIP3     H2       HT       0.417000        1.0080           0
      6079 WT1      1789     TIP3     OH2      OT      -0.834000       15.9994           0
      6080 WT1      1789     TIP3     H1       HT       0.417000        1.0080           0
      6081 WT1      1789     TIP3     H2       HT       0.417000        1.0080           0
      6082 WT1      1790     TIP3     OH2      OT      -0.834000       15.9994           0
      6083 WT1      1790     TIP3     H1       HT       0.417000        1.0080           0
      6084 WT1      1790     TIP3     H2       HT       0.417000        1.0080           0
      6085 WT1      1791     TIP3     OH2      OT      -0.834000       15.9994           0
      6086 WT1      1791     TIP3     H1       HT       0.417000        1.0080           0
      6087 WT1      1791     TIP3     H2       HT       0.417000        1.0080           0
      6088 WT1      1792     TIP3     OH2      OT      -0.834000       15.9994           0
      6089 WT1      1792     TIP3     H1       HT       0.417000        1.0080           0
      6090 WT1      1792     TIP3     H2       HT       0.417000        1.0080           0
      6091 WT1      1793     TIP3     OH2      OT      -0.834000       15.9994           0
      6092 WT1      1793     TIP3     H1       HT       0.417000        1.0080           0
      6093 WT1      1793     TIP3     H2       HT       0.417000        1.0080           0
      6094 WT1      1794     TIP3     OH2      OT      -0.834000       15.9994           0
      6095 WT1      1794     TIP3     H1       HT       0.417000        1.0080           0
      6096 WT1      1794     TIP3     H2       HT       0.417000        1.0080           0
      6097 WT1      1795     TIP3     OH2      OT      -0.834000       15.9994           0
      6098 WT1      1795     TIP3     H1       HT       0.417000        1.0080           0
      6099 WT1      1795     TIP3     H2       HT       0.417000        1.0080           0
      6100 WT1      1796     TIP3     OH2      OT      -0.834000       15.9994           0
      6101 WT1      1796     TIP3     H1       HT       0.417000        1.0080           0
      6102 WT1      1796     TIP3     H2       HT       0.417000        1.0080           0
      6103 WT1      1797     TIP3     OH2      OT      -0.834000       15.9994           0
      6104 WT1      1797     TIP3     H1       HT       0.417000        1.0080           0
      6105 WT1      1797     TIP3     H2       HT       0.417000        1.0080           0
      6106 WT1      1798     TIP3     OH2      OT      -0.834000       15.9994           0
      6107 WT1      1798     TIP3     H1       HT       0.417000        1.0080           0
      6108 WT1      1798     TIP3     H2       HT       0.417000        1.0080           0
      6109 WT1      1799     TIP3     OH2      OT      -0.834000       15.9994           0
      6110 WT1      1799     TIP3     H1       HT       0.417000        1.0080           0
      6111 WT1      1799     TIP3     H2       HT       0.417000        1.0080           0
      6112 WT1      1800     TIP3     OH2      OT      -0.834000       15.9994           0
      6113 WT1      1800     TIP3     H1       HT       0.417000        1.0080           0
      6114 WT1      1800     TIP3     H2       HT       0.417000        1.0080           0
      6115 WT1      1801     TIP3     OH2      OT      -0.834000       15.9994           0
      6116 WT1      1801     TIP3     H1       HT       0.417000        1.0080           0
      6117 WT1      1801     TIP3     H2       HT       0.417000        1.0080           0
      6118 WT1      1802     TIP3     OH2      OT      -0.834000       15.9994           0
      6119 WT1      1802     TIP3     H1       HT       0.417000        1.0080           0
      6120 WT1      1802     TIP3     H2       HT       0.417000        1.0080           0
      6121 WT1      1803     TIP3     OH2      OT      -0.834000       15.9994           0
      6122 WT1      1803     TIP3     H1       HT       0.417000        1.0080           0
      6123 WT1      1803     TIP3     H2       HT       0.417000        1.0080           0
      6124 WT1      1804     TIP3     OH2      OT      -0.834000       15.9994           0
      6125 WT1      1804     TIP3     H1       HT       0.417000        1.0080           0
      6126 WT1      1804     TIP3     H2       HT       0.417000        1.0080           0
      6127 WT1      1805     TIP3     OH2      OT      -0.834000       15.9994           0
      6128 WT1      1805     TIP3     H1       HT       0.417000        1.0080           0
      6129 WT1      1805     TIP3     H2       HT       0.417000        1.0080           0
      6130 WT1      1806     TIP3     OH2      OT      -0.834000       15.9994           0
      6131 WT1      1806     TIP3     H1       HT       0.417000        1.0080           0
      6132 WT1      1806     TIP3     H2       HT       0.417000        1.0080           0
      6133 WT1      1807     TIP3     OH2      OT      -0.834000       15.9994           0
      6134 WT1      1807     TIP3     H1       HT       0.417000        1.0080           0
      6135 WT1      1807     TIP3     H2       HT       0.417000        1.0080           0
      6136 WT1      1808     TIP3     OH2      OT      -0.834000       15.9994           0
      6137 WT1      1808     TIP3     H1       HT       0.417000        1.0080           0
      6138 WT1      1808     TIP3     H2       HT       0.417000        1.0080           0
      6139 WT1      1809     TIP3     OH2      OT      -0.834000       15.9994           0
      6140 WT1      1809     TIP3     H1       HT       0.417000        1.0080           0
      6141 WT1      1809     TIP3     H2       HT       0.417000        1.0080           0
      6142 WT1      1810     TIP3     OH2      OT      -0.834000       15.9994           0
      6143 WT1      1810     TIP3     H1       HT       0.417000        1.0080           0
      6144 WT1      1810     TIP3     H2       HT       0.417000        1.0080           0
      6145 WT1      1811     TIP3     OH2      OT      -0.834000       15.9994           0
      6146 WT1      1811     TIP3     H1       HT       0.417000        1.0080           0
      6147 WT1      1811     TIP3     H2       HT       0.417000        1.0080           0
      6148 WT1      1812     TIP3     OH2      OT      -0.834000       15.9994           0
      6149 WT1      1812     TIP3     H1       HT       0.417000        1.0080           0
      6150 WT1      1812     TIP3     H2       HT       0.417000        1.0080           0
      6151 WT1      1813     TIP3     OH2      OT      -0.834000       15.9994           0
      6152 WT1      1813     TIP3     H1       HT       0.417000        1.0080           0
      6153 WT1      1813     TIP3     H2       HT       0.417000        1.0080           0
      6154 WT1      1814     TIP3     OH2      OT      -0.834000       15.9994           0
      6155 WT1      1814     TIP3     H1       HT       0.417000        1.0080           0
      6156 WT1      1814     TIP3     H2       HT       0.417000        1.0080           0
      6157 WT1      1815     TIP3     OH2      OT      -0.834000       15.9994           0
      6158 WT1      1815     TIP3     H1       HT       0.417000        1.0080           0
      6159 WT1      1815     TIP3     H2       HT       0.417000        1.0080           0
      6160 WT1      1816     TIP3     OH2      OT      -0.834000       15.9994           0
      6161 WT1      1816     TIP3     H1       HT       0.417000        1.0080           0
      6162 WT1      1816     TIP3     H2       HT       0.417000        1.0080           0
      6163 WT1      1817     TIP3     OH2      OT      -0.834000       15.9994           0
      6164 WT1      1817     TIP3     H1       HT       0.417000        1.0080           0
      6165 WT1      1817     TIP3     H2       HT       0.417000        1.0080           0
      6166 WT1      1818     TIP3     OH2      OT      -0.834000       15.9994           0
      6167 WT1      1818     TIP3     H1       HT       0.417000        1.0080           0
      6168 WT1      1818     TIP3     H2       HT       0.417000        1.0080           0
      6169 WT1      1819     TIP3     OH2      OT      -0.834000       15.9994           0
      6170 WT1      1819     TIP3     H1       HT       0.417000        1.0080           0
      6171 WT1      1819     TIP3     H2       HT       0.417000        1.0080           0
      6172 WT1      1820     TIP3     OH2      OT      -0.834000       15.9994           0
      6173 WT1      1820     TIP3     H1       HT       0.417000        1.0080           0
      6174 WT1      1820     TIP3     H2       HT       0.417000        1.0080           0
      6175 WT1      1821     TIP3     OH2      OT      -0.834000       15.9994           0
      6176 WT1      1821     TIP3     H1       HT       0.417000        1.0080           0
      6177 WT1      1821     TIP3     H2       HT       0.417000        1.0080           0
      6178 WT1      1822     TIP3     OH2      OT      -0.834000       15.9994           0
      6179 WT1      1822     TIP3     H1       HT       0.417000        1.0080           0
      6180 WT1      1822     TIP3     H2       HT       0.417000        1.0080           0
      6181 WT1      1823     TIP3     OH2      OT      -0.834000       15.9994           0
      6182 WT1      1823     TIP3     H1       HT       0.417000        1.0080           0
      6183 WT1      1823     TIP3     H2       HT       0.417000        1.0080           0
      6184 WT1      1824     TIP3     OH2      OT      -0.834000       15.9994           0
      6185 WT1      1824     TIP3     H1       HT       0.417000        1.0080           0
      6186 WT1      1824     TIP3     H2       HT       0.417000        1.0080           0
      6187 WT1      1825     TIP3     OH2      OT      -0.834000       15.9994           0
      6188 WT1      1825     TIP3     H1       HT       0.417000        1.0080           0
      6189 WT1      1825     TIP3     H2       HT       0.417000        1.0080           0
      6190 WT1      1826     TIP3     OH2      OT      -0.834000       15.9994           0
      6191 WT1      1826     TIP3     H1       HT       0.417000        1.0080           0
      6192 WT1      1826     TIP3     H2       HT       0.417000        1.0080           0
      6193 WT1      1827     TIP3     OH2      OT      -0.834000       15.9994           0
      6194 WT1      1827     TIP3     H1       HT       0.417000        1.0080           0
      6195 WT1      1827     TIP3     H2       HT       0.417000        1.0080           0
      6196 WT1      1828     TIP3     OH2      OT      -0.834000       15.9994           0
      6197 WT1      1828     TIP3     H1       HT       0.417000        1.0080           0
      6198 WT1      1828     TIP3     H2       HT       0.417000        1.0080           0
      6199 WT1      1829     TIP3     OH2      OT      -0.834000       15.9994           0
      6200 WT1      1829     TIP3     H1       HT       0.417000        1.0080           0
      6201 WT1      1829     TIP3     H2       HT       0.417000        1.0080           0
      6202 WT1      1830     TIP3     OH2      OT      -0.834000       15.9994           0
      6203 WT1      1830     TIP3     H1       HT       0.417000        1.0080           0
      6204 WT1      1830     TIP3     H2       HT       0.417000        1.0080           0
      6205 WT1      1831     TIP3     OH2      OT      -0.834000       15.9994           0
      6206 WT1      1831     TIP3     H1       HT       0.417000        1.0080           0
      6207 WT1      1831     TIP3     H2       HT       0.417000        1.0080           0
      6208 WT1      1832     TIP3     OH2      OT      -0.834000       15.9994           0
      6209 WT1      1832     TIP3     H1       HT       0.417000        1.0080           0
      6210 WT1      1832     TIP3     H2       HT       0.417000        1.0080           0
      6211 WT1      1833     TIP3     OH2      OT      -0.834000       15.9994           0
      6212 WT1      1833     TIP3     H1       HT       0.417000        1.0080           0
      6213 WT1      1833     TIP3     H2       HT       0.417000        1.0080           0
      6214 WT1      1834     TIP3     OH2      OT      -0.834000       15.9994           0
      6215 WT1      1834     TIP3     H1       HT       0.417000        1.0080           0
      6216 WT1      1834     TIP3     H2       HT       0.417000        1.0080           0
      6217 WT1      1835     TIP3     OH2      OT      -0.834000       15.9994           0
      6218 WT1      1835     TIP3     H1       HT       0.417000        1.0080           0
      6219 WT1      1835     TIP3     H2       HT       0.417000        1.0080           0
      6220 WT1      1836     TIP3     OH2      OT      -0.834000       15.9994           0
      6221 WT1      1836     TIP3     H1       HT       0.417000        1.0080           0
      6222 WT1      1836     TIP3     H2       HT       0.417000        1.0080           0
      6223 WT1      1837     TIP3     OH2      OT      -0.834000       15.9994           0
      6224 WT1      1837     TIP3     H1       HT       0.417000        1.0080           0
      6225 WT1      1837     TIP3     H2       HT       0.417000        1.0080           0
      6226 WT1      1838     TIP3     OH2      OT      -0.834000       15.9994           0
      6227 WT1      1838     TIP3     H1       HT       0.417000        1.0080           0
      6228 WT1      1838     TIP3     H2       HT       0.417000        1.0080           0
      6229 WT1      1839     TIP3     OH2      OT      -0.834000       15.9994           0
      6230 WT1      1839     TIP3     H1       HT       0.417000        1.0080           0
      6231 WT1      1839     TIP3     H2       HT       0.417000        1.0080           0
      6232 WT1      1840     TIP3     OH2      OT      -0.834000       15.9994           0
      6233 WT1      1840     TIP3     H1       HT       0.417000        1.0080           0
      6234 WT1      1840     TIP3     H2       HT       0.417000        1.0080           0
      6235 WT1      1841     TIP3     OH2      OT      -0.834000       15.9994           0
      6236 WT1      1841     TIP3     H1       HT       0.417000        1.0080           0
      6237 WT1      1841     TIP3     H2       HT       0.417000        1.0080           0
      6238 WT1      1842     TIP3     OH2      OT      -0.834000       15.9994           0
      6239 WT1      1842     TIP3     H1       HT       0.417000        1.0080           0
      6240 WT1      1842     TIP3     H2       HT       0.417000        1.0080           0
      6241 WT1      1843     TIP3     OH2      OT      -0.834000       15.9994           0
      6242 WT1      1843     TIP3     H1       HT       0.417000        1.0080           0
      6243 WT1      1843     TIP3     H2       HT       0.417000        1.0080           0
      6244 WT1      1844     TIP3     OH2      OT      -0.834000       15.9994           0
      6245 WT1      1844     TIP3     H1       HT       0.417000        1.0080           0
      6246 WT1      1844     TIP3     H2       HT       0.417000        1.0080           0
      6247 WT1      1845     TIP3     OH2      OT      -0.834000       15.9994           0
      6248 WT1      1845     TIP3     H1       HT       0.417000        1.0080           0
      6249 WT1      1845     TIP3     H2       HT       0.417000        1.0080           0
      6250 WT1      1846     TIP3     OH2      OT      -0.834000       15.9994           0
      6251 WT1      1846     TIP3     H1       HT       0.417000        1.0080           0
      6252 WT1      1846     TIP3     H2       HT       0.417000        1.0080           0
      6253 WT1      1847     TIP3     OH2      OT      -0.834000       15.9994           0
      6254 WT1      1847     TIP3     H1       HT       0.417000        1.0080           0
      6255 WT1      1847     TIP3     H2       HT       0.417000        1.0080           0
      6256 WT1      1848     TIP3     OH2      OT      -0.834000       15.9994           0
      6257 WT1      1848     TIP3     H1       HT       0.417000        1.0080           0
      6258 WT1      1848     TIP3     H2       HT       0.417000        1.0080           0
      6259 WT1      1850     TIP3     OH2      OT      -0.834000       15.9994           0
      6260 WT1      1850     TIP3     H1       HT       0.417000        1.0080           0
      6261 WT1      1850     TIP3     H2       HT       0.417000        1.0080           0
      6262 WT1      1851     TIP3     OH2      OT      -0.834000       15.9994           0
      6263 WT1      1851     TIP3     H1       HT       0.417000        1.0080           0
      6264 WT1      1851     TIP3     H2       HT       0.417000        1.0080           0
      6265 WT1      1852     TIP3     OH2      OT      -0.834000       15.9994           0
      6266 WT1      1852     TIP3     H1       HT       0.417000        1.0080           0
      6267 WT1      1852     TIP3     H2       HT       0.417000        1.0080           0
      6268 WT1      1853     TIP3     OH2      OT      -0.834000       15.9994           0
      6269 WT1      1853     TIP3     H1       HT       0.417000        1.0080           0
      6270 WT1      1853     TIP3     H2       HT       0.417000        1.0080           0
      6271 WT1      1854     TIP3     OH2      OT      -0.834000       15.9994           0
      6272 WT1      1854     TIP3     H1       HT       0.417000        1.0080           0
      6273 WT1      1854     TIP3     H2       HT       0.417000        1.0080           0
      6274 WT1      1855     TIP3     OH2      OT      -0.834000       15.9994           0
      6275 WT1      1855     TIP3     H1       HT       0.417000        1.0080           0
      6276 WT1      1855     TIP3     H2       HT       0.417000        1.0080           0
      6277 WT1      1856     TIP3     OH2      OT      -0.834000       15.9994           0
      6278 WT1      1856     TIP3     H1       HT       0.417000        1.0080           0
      6279 WT1      1856     TIP3     H2       HT       0.417000        1.0080           0
      6280 WT1      1857     TIP3     OH2      OT      -0.834000       15.9994           0
      6281 WT1      1857     TIP3     H1       HT       0.417000        1.0080           0
      6282 WT1      1857     TIP3     H2       HT       0.417000        1.0080           0
      6283 WT1      1858     TIP3     OH2      OT      -0.834000       15.9994           0
      6284 WT1      1858     TIP3     H1       HT       0.417000        1.0080           0
      6285 WT1      1858     TIP3     H2       HT       0.417000        1.0080           0
      6286 WT1      1859     TIP3     OH2      OT      -0.834000       15.9994           0
      6287 WT1      1859     TIP3     H1       HT       0.417000        1.0080           0
      6288 WT1      1859     TIP3     H2       HT       0.417000        1.0080           0
      6289 WT1      1860     TIP3     OH2      OT      -0.834000       15.9994           0
      6290 WT1      1860     TIP3     H1       HT       0.417000        1.0080           0
      6291 WT1      1860     TIP3     H2       HT       0.417000        1.0080           0
      6292 WT1      1861     TIP3     OH2      OT      -0.834000       15.9994           0
      6293 WT1      1861     TIP3     H1       HT       0.417000        1.0080           0
      6294 WT1      1861     TIP3     H2       HT       0.417000        1.0080           0
      6295 WT1      1862     TIP3     OH2      OT      -0.834000       15.9994           0
      6296 WT1      1862     TIP3     H1       HT       0.417000        1.0080           0
      6297 WT1      1862     TIP3     H2       HT       0.417000        1.0080           0
      6298 WT1      1863     TIP3     OH2      OT      -0.834000       15.9994           0
      6299 WT1      1863     TIP3     H1       HT       0.417000        1.0080           0
      6300 WT1      1863     TIP3     H2       HT       0.417000        1.0080           0
      6301 WT1      1864     TIP3     OH2      OT      -0.834000       15.9994           0
      6302 WT1      1864     TIP3     H1       HT       0.417000        1.0080           0
      6303 WT1      1864     TIP3     H2       HT       0.417000        1.0080           0
      6304 WT1      1865     TIP3     OH2      OT      -0.834000       15.9994           0
      6305 WT1      1865     TIP3     H1       HT       0.417000        1.0080           0
      6306 WT1      1865     TIP3     H2       HT       0.417000        1.0080           0
      6307 WT1      1866     TIP3     OH2      OT      -0.834000       15.9994           0
      6308 WT1      1866     TIP3     H1       HT       0.417000        1.0080           0
      6309 WT1      1866     TIP3     H2       HT       0.417000        1.0080           0
      6310 WT1      1867     TIP3     OH2      OT      -0.834000       15.9994           0
      6311 WT1      1867     TIP3     H1       HT       0.417000        1.0080           0
      6312 WT1      1867     TIP3     H2       HT       0.417000        1.0080           0
      6313 WT1      1868     TIP3     OH2      OT      -0.834000       15.9994           0
      6314 WT1      1868     TIP3     H1       HT       0.417000        1.0080           0
      6315 WT1      1868     TIP3     H2       HT       0.417000        1.0080           0
      6316 WT1      1869     TIP3     OH2      OT      -0.834000       15.9994           0
      6317 WT1      1869     TIP3     H1       HT       0.417000        1.0080           0
      6318 WT1      1869     TIP3     H2       HT       0.417000        1.0080           0
      6319 WT1      1870     TIP3     OH2      OT      -0.834000       15.9994           0
      6320 WT1      1870     TIP3     H1       HT       0.417000        1.0080           0
      6321 WT1      1870     TIP3     H2       HT       0.417000        1.0080           0
      6322 WT1      1871     TIP3     OH2      OT      -0.834000       15.9994           0
      6323 WT1      1871     TIP3     H1       HT       0.417000        1.0080           0
      6324 WT1      1871     TIP3     H2       HT       0.417000        1.0080           0
      6325 WT1      1872     TIP3     OH2      OT      -0.834000       15.9994           0
      6326 WT1      1872     TIP3     H1       HT       0.417000        1.0080           0
      6327 WT1      1872     TIP3     H2       HT       0.417000        1.0080           0
      6328 WT1      1873     TIP3     OH2      OT      -0.834000       15.9994           0
      6329 WT1      1873     TIP3     H1       HT       0.417000        1.0080           0
      6330 WT1      1873     TIP3     H2       HT       0.417000        1.0080           0
      6331 WT1      1874     TIP3     OH2      OT      -0.834000       15.9994           0
      6332 WT1      1874     TIP3     H1       HT       0.417000        1.0080           0
      6333 WT1      1874     TIP3     H2       HT       0.417000        1.0080           0
      6334 WT1      1875     TIP3     OH2      OT      -0.834000       15.9994           0
      6335 WT1      1875     TIP3     H1       HT       0.417000        1.0080           0
      6336 WT1      1875     TIP3     H2       HT       0.417000        1.0080           0
      6337 WT1      1876     TIP3     OH2      OT      -0.834000       15.9994           0
      6338 WT1      1876     TIP3     H1       HT       0.417000        1.0080           0
      6339 WT1      1876     TIP3     H2       HT       0.417000        1.0080           0
      6340 WT1      1877     TIP3     OH2      OT      -0.834000       15.9994           0
      6341 WT1      1877     TIP3     H1       HT       0.417000        1.0080           0
      6342 WT1      1877     TIP3     H2       HT       0.417000        1.0080           0
      6343 WT1      1878     TIP3     OH2      OT      -0.834000       15.9994           0
      6344 WT1      1878     TIP3     H1       HT       0.417000        1.0080           0
      6345 WT1      1878     TIP3     H2       HT       0.417000        1.0080           0
      6346 WT1      1879     TIP3     OH2      OT      -0.834000       15.9994           0
      6347 WT1      1879     TIP3     H1       HT       0.417000        1.0080           0
      6348 WT1      1879     TIP3     H2       HT       0.417000        1.0080           0
      6349 WT1      1880     TIP3     OH2      OT      -0.834000       15.9994           0
      6350 WT1      1880     TIP3     H1       HT       0.417000        1.0080           0
      6351 WT1      1880     TIP3     H2       HT       0.417000        1.0080           0
      6352 WT1      1881     TIP3     OH2      OT      -0.834000       15.9994           0
      6353 WT1      1881     TIP3     H1       HT       0.417000        1.0080           0
      6354 WT1      1881     TIP3     H2       HT       0.417000        1.0080           0
      6355 WT1      1882     TIP3     OH2      OT      -0.834000       15.9994           0
      6356 WT1      1882     TIP3     H1       HT       0.417000        1.0080           0
      6357 WT1      1882     TIP3     H2       HT       0.417000        1.0080           0
      6358 WT1      1883     TIP3     OH2      OT      -0.834000       15.9994           0
      6359 WT1      1883     TIP3     H1       HT       0.417000        1.0080           0
      6360 WT1      1883     TIP3     H2       HT       0.417000        1.0080           0
      6361 WT1      1884     TIP3     OH2      OT      -0.834000       15.9994           0
      6362 WT1      1884     TIP3     H1       HT       0.417000        1.0080           0
      6363 WT1      1884     TIP3     H2       HT       0.417000        1.0080           0
      6364 WT1      1885     TIP3     OH2      OT      -0.834000       15.9994           0
      6365 WT1      1885     TIP3     H1       HT       0.417000        1.0080           0
      6366 WT1      1885     TIP3     H2       HT       0.417000        1.0080           0
      6367 WT1      1886     TIP3     OH2      OT      -0.834000       15.9994           0
      6368 WT1      1886     TIP3     H1       HT       0.417000        1.0080           0
      6369 WT1      1886     TIP3     H2       HT       0.417000        1.0080           0
      6370 WT1      1887     TIP3     OH2      OT      -0.834000       15.9994           0
      6371 WT1      1887     TIP3     H1       HT       0.417000        1.0080           0
      6372 WT1      1887     TIP3     H2       HT       0.417000        1.0080           0
      6373 WT1      1888     TIP3     OH2      OT      -0.834000       15.9994           0
      6374 WT1      1888     TIP3     H1       HT       0.417000        1.0080           0
      6375 WT1      1888     TIP3     H2       HT       0.417000        1.0080           0
      6376 WT1      1889     TIP3     OH2      OT      -0.834000       15.9994           0
      6377 WT1      1889     TIP3     H1       HT       0.417000        1.0080           0
      6378 WT1      1889     TIP3     H2       HT       0.417000        1.0080           0
      6379 WT1      1890     TIP3     OH2      OT      -0.834000       15.9994           0
      6380 WT1      1890     TIP3     H1       HT       0.417000        1.0080           0
      6381 WT1      1890     TIP3     H2       HT       0.417000        1.0080           0
      6382 WT1      1891     TIP3     OH2      OT      -0.834000       15.9994           0
      6383 WT1      1891     TIP3     H1       HT       0.417000        1.0080           0
      6384 WT1      1891     TIP3     H2       HT       0.417000        1.0080           0
      6385 WT1      1892     TIP3     OH2      OT      -0.834000       15.9994           0
      6386 WT1      1892     TIP3     H1       HT       0.417000        1.0080           0
      6387 WT1      1892     TIP3     H2       HT       0.417000        1.0080           0
      6388 WT1      1893     TIP3     OH2      OT      -0.834000       15.9994           0
      6389 WT1      1893     TIP3     H1       HT       0.417000        1.0080           0
      6390 WT1      1893     TIP3     H2       HT       0.417000        1.0080           0
      6391 WT1      1894     TIP3     OH2      OT      -0.834000       15.9994           0
      6392 WT1      1894     TIP3     H1       HT       0.417000        1.0080           0
      6393 WT1      1894     TIP3     H2       HT       0.417000        1.0080           0
      6394 WT1      1895     TIP3     OH2      OT      -0.834000       15.9994           0
      6395 WT1      1895     TIP3     H1       HT       0.417000        1.0080           0
      6396 WT1      1895     TIP3     H2       HT       0.417000        1.0080           0
      6397 WT1      1896     TIP3     OH2      OT      -0.834000       15.9994           0
      6398 WT1      1896     TIP3     H1       HT       0.417000        1.0080           0
      6399 WT1      1896     TIP3     H2       HT       0.417000        1.0080           0
      6400 WT1      1897     TIP3     OH2      OT      -0.834000       15.9994           0
      6401 WT1      1897     TIP3     H1       HT       0.417000        1.0080           0
      6402 WT1      1897     TIP3     H2       HT       0.417000        1.0080           0
      6403 WT1      1898     TIP3     OH2      OT      -0.834000       15.9994           0
      6404 WT1      1898     TIP3     H1       HT       0.417000        1.0080           0
      6405 WT1      1898     TIP3     H2       HT       0.417000        1.0080           0
      6406 WT1      1899     TIP3     OH2      OT      -0.834000       15.9994           0
      6407 WT1      1899     TIP3     H1       HT       0.417000        1.0080           0
      6408 WT1      1899     TIP3     H2       HT       0.417000        1.0080           0
      6409 WT1      1900     TIP3     OH2      OT      -0.834000       15.9994           0
      6410 WT1      1900     TIP3     H1       HT       0.417000        1.0080           0
      6411 WT1      1900     TIP3     H2       HT       0.417000        1.0080           0
      6412 WT1      1901     TIP3     OH2      OT      -0.834000       15.9994           0
      6413 WT1      1901     TIP3     H1       HT       0.417000        1.0080           0
      6414 WT1      1901     TIP3     H2       HT       0.417000        1.0080           0
      6415 WT1      1902     TIP3     OH2      OT      -0.834000       15.9994           0
      6416 WT1      1902     TIP3     H1       HT       0.417000        1.0080           0
      6417 WT1      1902     TIP3     H2       HT       0.417000        1.0080           0
      6418 WT1      1903     TIP3     OH2      OT      -0.834000       15.9994           0
      6419 WT1      1903     TIP3     H1       HT       0.417000        1.0080           0
      6420 WT1      1903     TIP3     H2       HT       0.417000        1.0080           0
      6421 WT1      1904     TIP3     OH2      OT      -0.834000       15.9994           0
      6422 WT1      1904     TIP3     H1       HT       0.417000        1.0080           0
      6423 WT1      1904     TIP3     H2       HT       0.417000        1.0080           0
      6424 WT1      1905     TIP3     OH2      OT      -0.834000       15.9994           0
      6425 WT1      1905     TIP3     H1       HT       0.417000        1.0080           0
      6426 WT1      1905     TIP3     H2       HT       0.417000        1.0080           0
      6427 WT1      1906     TIP3     OH2      OT      -0.834000       15.9994           0
      6428 WT1      1906     TIP3     H1       HT       0.417000        1.0080           0
      6429 WT1      1906     TIP3     H2       HT       0.417000        1.0080           0
      6430 WT1      1907     TIP3     OH2      OT      -0.834000       15.9994           0
      6431 WT1      1907     TIP3     H1       HT       0.417000        1.0080           0
      6432 WT1      1907     TIP3     H2       HT       0.417000        1.0080           0
      6433 WT1      1908     TIP3     OH2      OT      -0.834000       15.9994           0
      6434 WT1      1908     TIP3     H1       HT       0.417000        1.0080           0
      6435 WT1      1908     TIP3     H2       HT       0.417000        1.0080           0
      6436 WT1      1909     TIP3     OH2      OT      -0.834000       15.9994           0
      6437 WT1      1909     TIP3     H1       HT       0.417000        1.0080           0
      6438 WT1      1909     TIP3     H2       HT       0.417000        1.0080           0
      6439 WT1      1910     TIP3     OH2      OT      -0.834000       15.9994           0
      6440 WT1      1910     TIP3     H1       HT       0.417000        1.0080           0
      6441 WT1      1910     TIP3     H2       HT       0.417000        1.0080           0
      6442 WT1      1911     TIP3     OH2      OT      -0.834000       15.9994           0
      6443 WT1      1911     TIP3     H1       HT       0.417000        1.0080           0
      6444 WT1      1911     TIP3     H2       HT       0.417000        1.0080           0
      6445 WT1      1912     TIP3     OH2      OT      -0.834000       15.9994           0
      6446 WT1      1912     TIP3     H1       HT       0.417000        1.0080           0
      6447 WT1      1912     TIP3     H2       HT       0.417000        1.0080           0
      6448 WT1      1913     TIP3     OH2      OT      -0.834000       15.9994           0
      6449 WT1      1913     TIP3     H1       HT       0.417000        1.0080           0
      6450 WT1      1913     TIP3     H2       HT       0.417000        1.0080           0
      6451 WT1      1914     TIP3     OH2      OT      -0.834000       15.9994           0
      6452 WT1      1914     TIP3     H1       HT       0.417000        1.0080           0
      6453 WT1      1914     TIP3     H2       HT       0.417000        1.0080           0
      6454 WT1      1915     TIP3     OH2      OT      -0.834000       15.9994           0
      6455 WT1      1915     TIP3     H1       HT       0.417000        1.0080           0
      6456 WT1      1915     TIP3     H2       HT       0.417000        1.0080           0
      6457 WT1      1916     TIP3     OH2      OT      -0.834000       15.9994           0
      6458 WT1      1916     TIP3     H1       HT       0.417000        1.0080           0
      6459 WT1      1916     TIP3     H2       HT       0.417000        1.0080           0
      6460 WT1      1917     TIP3     OH2      OT      -0.834000       15.9994           0
      6461 WT1      1917     TIP3     H1       HT       0.417000        1.0080           0
      6462 WT1      1917     TIP3     H2       HT       0.417000        1.0080           0
      6463 WT1      1918     TIP3     OH2      OT      -0.834000       15.9994           0
      6464 WT1      1918     TIP3     H1       HT       0.417000        1.0080           0
      6465 WT1      1918     TIP3     H2       HT       0.417000        1.0080           0
      6466 WT1      1919     TIP3     OH2      OT      -0.834000       15.9994           0
      6467 WT1      1919     TIP3     H1       HT       0.417000        1.0080           0
      6468 WT1      1919     TIP3     H2       HT       0.417000        1.0080           0
      6469 WT1      1920     TIP3     OH2      OT      -0.834000       15.9994           0
      6470 WT1      1920     TIP3     H1       HT       0.417000        1.0080           0
      6471 WT1      1920     TIP3     H2       HT       0.417000        1.0080           0
      6472 WT1      1921     TIP3     OH2      OT      -0.834000       15.9994           0
      6473 WT1      1921     TIP3     H1       HT       0.417000        1.0080           0
      6474 WT1      1921     TIP3     H2       HT       0.417000        1.0080           0
      6475 WT1      1922     TIP3     OH2      OT      -0.834000       15.9994           0
      6476 WT1      1922     TIP3     H1       HT       0.417000        1.0080           0
      6477 WT1      1922     TIP3     H2       HT       0.417000        1.0080           0
      6478 WT1      1923     TIP3     OH2      OT      -0.834000       15.9994           0
      6479 WT1      1923     TIP3     H1       HT       0.417000        1.0080           0
      6480 WT1      1923     TIP3     H2       HT       0.417000        1.0080           0
      6481 WT1      1924     TIP3     OH2      OT      -0.834000       15.9994           0
      6482 WT1      1924     TIP3     H1       HT       0.417000        1.0080           0
      6483 WT1      1924     TIP3     H2       HT       0.417000        1.0080           0
      6484 WT1      1925     TIP3     OH2      OT      -0.834000       15.9994           0
      6485 WT1      1925     TIP3     H1       HT       0.417000        1.0080           0
      6486 WT1      1925     TIP3     H2       HT       0.417000        1.0080           0
      6487 WT1      1926     TIP3     OH2      OT      -0.834000       15.9994           0
      6488 WT1      1926     TIP3     H1       HT       0.417000        1.0080           0
      6489 WT1      1926     TIP3     H2       HT       0.417000        1.0080           0
      6490 WT1      1927     TIP3     OH2      OT      -0.834000       15.9994           0
      6491 WT1      1927     TIP3     H1       HT       0.417000        1.0080           0
      6492 WT1      1927     TIP3     H2       HT       0.417000        1.0080           0
      6493 WT1      1928     TIP3     OH2      OT      -0.834000       15.9994           0
      6494 WT1      1928     TIP3     H1       HT       0.417000        1.0080           0
      6495 WT1      1928     TIP3     H2       HT       0.417000        1.0080           0
      6496 WT1      1929     TIP3     OH2      OT      -0.834000       15.9994           0
      6497 WT1      1929     TIP3     H1       HT       0.417000        1.0080           0
      6498 WT1      1929     TIP3     H2       HT       0.417000        1.0080           0
      6499 WT1      1930     TIP3     OH2      OT      -0.834000       15.9994           0
      6500 WT1      1930     TIP3     H1       HT       0.417000        1.0080           0
      6501 WT1      1930     TIP3     H2       HT       0.417000        1.0080           0
      6502 WT1      1931     TIP3     OH2      OT      -0.834000       15.9994           0
      6503 WT1      1931     TIP3     H1       HT       0.417000        1.0080           0
      6504 WT1      1931     TIP3     H2       HT       0.417000        1.0080           0
      6505 WT1      1932     TIP3     OH2      OT      -0.834000       15.9994           0
      6506 WT1      1932     TIP3     H1       HT       0.417000        1.0080           0
      6507 WT1      1932     TIP3     H2       HT       0.417000        1.0080           0
      6508 WT1      1933     TIP3     OH2      OT      -0.834000       15.9994           0
      6509 WT1      1933     TIP3     H1       HT       0.417000        1.0080           0
      6510 WT1      1933     TIP3     H2       HT       0.417000        1.0080           0
      6511 WT1      1934     TIP3     OH2      OT      -0.834000       15.9994           0
      6512 WT1      1934     TIP3     H1       HT       0.417000        1.0080           0
      6513 WT1      1934     TIP3     H2       HT       0.417000        1.0080           0
      6514 WT1      1935     TIP3     OH2      OT      -0.834000       15.9994           0
      6515 WT1      1935     TIP3     H1       HT       0.417000        1.0080           0
      6516 WT1      1935     TIP3     H2       HT       0.417000        1.0080           0
      6517 WT1      1936     TIP3     OH2      OT      -0.834000       15.9994           0
      6518 WT1      1936     TIP3     H1       HT       0.417000        1.0080           0
      6519 WT1      1936     TIP3     H2       HT       0.417000        1.0080           0
      6520 WT1      1937     TIP3     OH2      OT      -0.834000       15.9994           0
      6521 WT1      1937     TIP3     H1       HT       0.417000        1.0080           0
      6522 WT1      1937     TIP3     H2       HT       0.417000        1.0080           0
      6523 WT1      1938     TIP3     OH2      OT      -0.834000       15.9994           0
      6524 WT1      1938     TIP3     H1       HT       0.417000        1.0080           0
      6525 WT1      1938     TIP3     H2       HT       0.417000        1.0080           0
      6526 WT1      1939     TIP3     OH2      OT      -0.834000       15.9994           0
      6527 WT1      1939     TIP3     H1       HT       0.417000        1.0080           0
      6528 WT1      1939     TIP3     H2       HT       0.417000        1.0080           0
      6529 WT1      1940     TIP3     OH2      OT      -0.834000       15.9994           0
      6530 WT1      1940     TIP3     H1       HT       0.417000        1.0080           0
      6531 WT1      1940     TIP3     H2       HT       0.417000        1.0080           0
      6532 WT1      1941     TIP3     OH2      OT      -0.834000       15.9994           0
      6533 WT1      1941     TIP3     H1       HT       0.417000        1.0080           0
      6534 WT1      1941     TIP3     H2       HT       0.417000        1.0080           0
      6535 WT1      1942     TIP3     OH2      OT      -0.834000       15.9994           0
      6536 WT1      1942     TIP3     H1       HT       0.417000        1.0080           0
      6537 WT1      1942     TIP3     H2       HT       0.417000        1.0080           0
      6538 WT1      1943     TIP3     OH2      OT      -0.834000       15.9994           0
      6539 WT1      1943     TIP3     H1       HT       0.417000        1.0080           0
      6540 WT1      1943     TIP3     H2       HT       0.417000        1.0080           0
      6541 WT1      1944     TIP3     OH2      OT      -0.834000       15.9994           0
      6542 WT1      1944     TIP3     H1       HT       0.417000        1.0080           0
      6543 WT1      1944     TIP3     H2       HT       0.417000        1.0080           0
      6544 WT1      1945     TIP3     OH2      OT      -0.834000       15.9994           0
      6545 WT1      1945     TIP3     H1       HT       0.417000        1.0080           0
      6546 WT1      1945     TIP3     H2       HT       0.417000        1.0080           0
      6547 WT1      1946     TIP3     OH2      OT      -0.834000       15.9994           0
      6548 WT1      1946     TIP3     H1       HT       0.417000        1.0080           0
      6549 WT1      1946     TIP3     H2       HT       0.417000        1.0080           0
      6550 WT1      1947     TIP3     OH2      OT      -0.834000       15.9994           0
      6551 WT1      1947     TIP3     H1       HT       0.417000        1.0080           0
      6552 WT1      1947     TIP3     H2       HT       0.417000        1.0080           0
      6553 WT1      1948     TIP3     OH2      OT      -0.834000       15.9994           0
      6554 WT1      1948     TIP3     H1       HT       0.417000        1.0080           0
      6555 WT1      1948     TIP3     H2       HT       0.417000        1.0080           0
      6556 WT1      1949     TIP3     OH2      OT      -0.834000       15.9994           0
      6557 WT1      1949     TIP3     H1       HT       0.417000        1.0080           0
      6558 WT1      1949     TIP3     H2       HT       0.417000        1.0080           0
      6559 WT1      1950     TIP3     OH2      OT      -0.834000       15.9994           0
      6560 WT1      1950     TIP3     H1       HT       0.417000        1.0080           0
      6561 WT1      1950     TIP3     H2       HT       0.417000        1.0080           0
      6562 WT1      1951     TIP3     OH2      OT      -0.834000       15.9994           0
      6563 WT1      1951     TIP3     H1       HT       0.417000        1.0080           0
      6564 WT1      1951     TIP3     H2       HT       0.417000        1.0080           0
      6565 WT1      1952     TIP3     OH2      OT      -0.834000       15.9994           0
      6566 WT1      1952     TIP3     H1       HT       0.417000        1.0080           0
      6567 WT1      1952     TIP3     H2       HT       0.417000        1.0080           0
      6568 WT1      1953     TIP3     OH2      OT      -0.834000       15.9994           0
      6569 WT1      1953     TIP3     H1       HT       0.417000        1.0080           0
      6570 WT1      1953     TIP3     H2       HT       0.417000        1.0080           0
      6571 WT1      1954     TIP3     OH2      OT      -0.834000       15.9994           0
      6572 WT1      1954     TIP3     H1       HT       0.417000        1.0080           0
      6573 WT1      1954     TIP3     H2       HT       0.417000        1.0080           0
      6574 WT1      1955     TIP3     OH2      OT      -0.834000       15.9994           0
      6575 WT1      1955     TIP3     H1       HT       0.417000        1.0080           0
      6576 WT1      1955     TIP3     H2       HT       0.417000        1.0080           0
      6577 WT1      1956     TIP3     OH2      OT      -0.834000       15.9994           0
      6578 WT1      1956     TIP3     H1       HT       0.417000        1.0080           0
      6579 WT1      1956     TIP3     H2       HT       0.417000        1.0080           0
      6580 WT1      1957     TIP3     OH2      OT      -0.834000       15.9994           0
      6581 WT1      1957     TIP3     H1       HT       0.417000        1.0080           0
      6582 WT1      1957     TIP3     H2       HT       0.417000        1.0080           0
      6583 WT1      1958     TIP3     OH2      OT      -0.834000       15.9994           0
      6584 WT1      1958     TIP3     H1       HT       0.417000        1.0080           0
      6585 WT1      1958     TIP3     H2       HT       0.417000        1.0080           0
      6586 WT1      1959     TIP3     OH2      OT      -0.834000       15.9994           0
      6587 WT1      1959     TIP3     H1       HT       0.417000        1.0080           0
      6588 WT1      1959     TIP3     H2       HT       0.417000        1.0080           0
      6589 WT1      1960     TIP3     OH2      OT      -0.834000       15.9994           0
      6590 WT1      1960     TIP3     H1       HT       0.417000        1.0080           0
      6591 WT1      1960     TIP3     H2       HT       0.417000        1.0080           0
      6592 WT1      1961     TIP3     OH2      OT      -0.834000       15.9994           0
      6593 WT1      1961     TIP3     H1       HT       0.417000        1.0080           0
      6594 WT1      1961     TIP3     H2       HT       0.417000        1.0080           0
      6595 WT1      1962     TIP3     OH2      OT      -0.834000       15.9994           0
      6596 WT1      1962     TIP3     H1       HT       0.417000        1.0080           0
      6597 WT1      1962     TIP3     H2       HT       0.417000        1.0080           0
      6598 WT1      1963     TIP3     OH2      OT      -0.834000       15.9994           0
      6599 WT1      1963     TIP3     H1       HT       0.417000        1.0080           0
      6600 WT1      1963     TIP3     H2       HT       0.417000        1.0080           0
      6601 WT1      1964     TIP3     OH2      OT      -0.834000       15.9994           0
      6602 WT1      1964     TIP3     H1       HT       0.417000        1.0080           0
      6603 WT1      1964     TIP3     H2       HT       0.417000        1.0080           0
      6604 WT1      1965     TIP3     OH2      OT      -0.834000       15.9994           0
      6605 WT1      1965     TIP3     H1       HT       0.417000        1.0080           0
      6606 WT1      1965     TIP3     H2       HT       0.417000        1.0080           0
      6607 WT1      1966     TIP3     OH2      OT      -0.834000       15.9994           0
      6608 WT1      1966     TIP3     H1       HT       0.417000        1.0080           0
      6609 WT1      1966     TIP3     H2       HT       0.417000        1.0080           0
      6610 WT1      1967     TIP3     OH2      OT      -0.834000       15.9994           0
      6611 WT1      1967     TIP3     H1       HT       0.417000        1.0080           0
      6612 WT1      1967     TIP3     H2       HT       0.417000        1.0080           0
      6613 WT1      1968     TIP3     OH2      OT      -0.834000       15.9994           0
      6614 WT1      1968     TIP3     H1       HT       0.417000        1.0080           0
      6615 WT1      1968     TIP3     H2       HT       0.417000        1.0080           0
      6616 WT1      1969     TIP3     OH2      OT      -0.834000       15.9994           0
      6617 WT1      1969     TIP3     H1       HT       0.417000        1.0080           0
      6618 WT1      1969     TIP3     H2       HT       0.417000        1.0080           0
      6619 WT1      1970     TIP3     OH2      OT      -0.834000       15.9994           0
      6620 WT1      1970     TIP3     H1       HT       0.417000        1.0080           0
      6621 WT1      1970     TIP3     H2       HT       0.417000        1.0080           0
      6622 WT1      1971     TIP3     OH2      OT      -0.834000       15.9994           0
      6623 WT1      1971     TIP3     H1       HT       0.417000        1.0080           0
      6624 WT1      1971     TIP3     H2       HT       0.417000        1.0080           0
      6625 WT1      1972     TIP3     OH2      OT      -0.834000       15.9994           0
      6626 WT1      1972     TIP3     H1       HT       0.417000        1.0080           0
      6627 WT1      1972     TIP3     H2       HT       0.417000        1.0080           0
      6628 WT1      1973     TIP3     OH2      OT      -0.834000       15.9994           0
      6629 WT1      1973     TIP3     H1       HT       0.417000        1.0080           0
      6630 WT1      1973     TIP3     H2       HT       0.417000        1.0080           0
      6631 WT1      1974     TIP3     OH2      OT      -0.834000       15.9994           0
      6632 WT1      1974     TIP3     H1       HT       0.417000        1.0080           0
      6633 WT1      1974     TIP3     H2       HT       0.417000        1.0080           0
      6634 WT1      1975     TIP3     OH2      OT      -0.834000       15.9994           0
      6635 WT1      1975     TIP3     H1       HT       0.417000        1.0080           0
      6636 WT1      1975     TIP3     H2       HT       0.417000        1.0080           0
      6637 WT1      1976     TIP3     OH2      OT      -0.834000       15.9994           0
      6638 WT1      1976     TIP3     H1       HT       0.417000        1.0080           0
      6639 WT1      1976     TIP3     H2       HT       0.417000        1.0080           0
      6640 WT1      1977     TIP3     OH2      OT      -0.834000       15.9994           0
      6641 WT1      1977     TIP3     H1       HT       0.417000        1.0080           0
      6642 WT1      1977     TIP3     H2       HT       0.417000        1.0080           0
      6643 WT1      1978     TIP3     OH2      OT      -0.834000       15.9994           0
      6644 WT1      1978     TIP3     H1       HT       0.417000        1.0080           0
      6645 WT1      1978     TIP3     H2       HT       0.417000        1.0080           0
      6646 WT1      1979     TIP3     OH2      OT      -0.834000       15.9994           0
      6647 WT1      1979     TIP3     H1       HT       0.417000        1.0080           0
      6648 WT1      1979     TIP3     H2       HT       0.417000        1.0080           0
      6649 WT1      1980     TIP3     OH2      OT      -0.834000       15.9994           0
      6650 WT1      1980     TIP3     H1       HT       0.417000        1.0080           0
      6651 WT1      1980     TIP3     H2       HT       0.417000        1.0080           0
      6652 WT1      1981     TIP3     OH2      OT      -0.834000       15.9994           0
      6653 WT1      1981     TIP3     H1       HT       0.417000        1.0080           0
      6654 WT1      1981     TIP3     H2       HT       0.417000        1.0080           0
      6655 WT1      1982     TIP3     OH2      OT      -0.834000       15.9994           0
      6656 WT1      1982     TIP3     H1       HT       0.417000        1.0080           0
      6657 WT1      1982     TIP3     H2       HT       0.417000        1.0080           0
      6658 WT1      1983     TIP3     OH2      OT      -0.834000       15.9994           0
      6659 WT1      1983     TIP3     H1       HT       0.417000        1.0080           0
      6660 WT1      1983     TIP3     H2       HT       0.417000        1.0080           0
      6661 WT1      1984     TIP3     OH2      OT      -0.834000       15.9994           0
      6662 WT1      1984     TIP3     H1       HT       0.417000        1.0080           0
      6663 WT1      1984     TIP3     H2       HT       0.417000        1.0080           0
      6664 WT1      1985     TIP3     OH2      OT      -0.834000       15.9994           0
      6665 WT1      1985     TIP3     H1       HT       0.417000        1.0080           0
      6666 WT1      1985     TIP3     H2       HT       0.417000        1.0080           0
      6667 WT1      1986     TIP3     OH2      OT      -0.834000       15.9994           0
      6668 WT1      1986     TIP3     H1       HT       0.417000        1.0080           0
      6669 WT1      1986     TIP3     H2       HT       0.417000        1.0080           0
      6670 WT1      1987     TIP3     OH2      OT      -0.834000       15.9994           0
      6671 WT1      1987     TIP3     H1       HT       0.417000        1.0080           0
      6672 WT1      1987     TIP3     H2       HT       0.417000        1.0080           0
      6673 WT1      1988     TIP3     OH2      OT      -0.834000       15.9994           0
      6674 WT1      1988     TIP3     H1       HT       0.417000        1.0080           0
      6675 WT1      1988     TIP3     H2       HT       0.417000        1.0080           0
      6676 WT1      1989     TIP3     OH2      OT      -0.834000       15.9994           0
      6677 WT1      1989     TIP3     H1       HT       0.417000        1.0080           0
      6678 WT1      1989     TIP3     H2       HT       0.417000        1.0080           0
      6679 WT1      1990     TIP3     OH2      OT      -0.834000       15.9994           0
      6680 WT1      1990     TIP3     H1       HT       0.417000        1.0080           0
      6681 WT1      1990     TIP3     H2       HT       0.417000        1.0080           0
      6682 WT1      1991     TIP3     OH2      OT      -0.834000       15.9994           0
      6683 WT1      1991     TIP3     H1       HT       0.417000        1.0080           0
      6684 WT1      1991     TIP3     H2       HT       0.417000        1.0080           0
      6685 WT1      1992     TIP3     OH2      OT      -0.834000       15.9994           0
      6686 WT1      1992     TIP3     H1       HT       0.417000        1.0080           0
      6687 WT1      1992     TIP3     H2       HT       0.417000        1.0080           0
      6688 WT1      1993     TIP3     OH2      OT      -0.834000       15.9994           0
      6689 WT1      1993     TIP3     H1       HT       0.417000        1.0080           0
      6690 WT1      1993     TIP3     H2       HT       0.417000        1.0080           0
      6691 WT1      1994     TIP3     OH2      OT      -0.834000       15.9994           0
      6692 WT1      1994     TIP3     H1       HT       0.417000        1.0080           0
      6693 WT1      1994     TIP3     H2       HT       0.417000        1.0080           0
      6694 WT1      1995     TIP3     OH2      OT      -0.834000       15.9994           0
      6695 WT1      1995     TIP3     H1       HT       0.417000        1.0080           0
      6696 WT1      1995     TIP3     H2       HT       0.417000        1.0080           0
      6697 WT1      1996     TIP3     OH2      OT      -0.834000       15.9994           0
      6698 WT1      1996     TIP3     H1       HT       0.417000        1.0080           0
      6699 WT1      1996     TIP3     H2       HT       0.417000        1.0080           0
      6700 WT1      1997     TIP3     OH2      OT      -0.834000       15.9994           0
      6701 WT1      1997     TIP3     H1       HT       0.417000        1.0080           0
      6702 WT1      1997     TIP3     H2       HT       0.417000        1.0080           0
      6703 WT1      1998     TIP3     OH2      OT      -0.834000       15.9994           0
      6704 WT1      1998     TIP3     H1       HT       0.417000        1.0080           0
      6705 WT1      1998     TIP3     H2       HT       0.417000        1.0080           0
      6706 WT1      1999     TIP3     OH2      OT      -0.834000       15.9994           0
      6707 WT1      1999     TIP3     H1       HT       0.417000        1.0080           0
      6708 WT1      1999     TIP3     H2       HT       0.417000        1.0080           0
      6709 WT1      2000     TIP3     OH2      OT      -0.834000       15.9994           0
      6710 WT1      2000     TIP3     H1       HT       0.417000        1.0080           0
      6711 WT1      2000     TIP3     H2       HT       0.417000        1.0080           0
      6712 WT1      2001     TIP3     OH2      OT      -0.834000       15.9994           0
      6713 WT1      2001     TIP3     H1       HT       0.417000        1.0080           0
      6714 WT1      2001     TIP3     H2       HT       0.417000        1.0080           0
      6715 WT1      2002     TIP3     OH2      OT      -0.834000       15.9994           0
      6716 WT1      2002     TIP3     H1       HT       0.417000        1.0080           0
      6717 WT1      2002     TIP3     H2       HT       0.417000        1.0080           0
      6718 WT1      2003     TIP3     OH2      OT      -0.834000       15.9994           0
      6719 WT1      2003     TIP3     H1       HT       0.417000        1.0080           0
      6720 WT1      2003     TIP3     H2       HT       0.417000        1.0080           0
      6721 WT1      2004     TIP3     OH2      OT      -0.834000       15.9994           0
      6722 WT1      2004     TIP3     H1       HT       0.417000        1.0080           0
      6723 WT1      2004     TIP3     H2       HT       0.417000        1.0080           0
      6724 WT1      2005     TIP3     OH2      OT      -0.834000       15.9994           0
      6725 WT1      2005     TIP3     H1       HT       0.417000        1.0080           0
      6726 WT1      2005     TIP3     H2       HT       0.417000        1.0080           0
      6727 WT1      2006     TIP3     OH2      OT      -0.834000       15.9994           0
      6728 WT1      2006     TIP3     H1       HT       0.417000        1.0080           0
      6729 WT1      2006     TIP3     H2       HT       0.417000        1.0080           0
      6730 WT1      2007     TIP3     OH2      OT      -0.834000       15.9994           0
      6731 WT1      2007     TIP3     H1       HT       0.417000        1.0080           0
      6732 WT1      2007     TIP3     H2       HT       0.417000        1.0080           0
      6733 WT1      2008     TIP3     OH2      OT      -0.834000       15.9994           0
      6734 WT1      2008     TIP3     H1       HT       0.417000        1.0080           0
      6735 WT1      2008     TIP3     H2       HT       0.417000        1.0080           0
      6736 WT1      2009     TIP3     OH2      OT      -0.834000       15.9994           0
      6737 WT1      2009     TIP3     H1       HT       0.417000        1.0080           0
      6738 WT1      2009     TIP3     H2       HT       0.417000        1.0080           0
      6739 WT1      2010     TIP3     OH2      OT      -0.834000       15.9994           0
      6740 WT1      2010     TIP3     H1       HT       0.417000        1.0080           0
      6741 WT1      2010     TIP3     H2       HT       0.417000        1.0080           0
      6742 WT1      2011     TIP3     OH2      OT      -0.834000       15.9994           0
      6743 WT1      2011     TIP3     H1       HT       0.417000        1.0080           0
      6744 WT1      2011     TIP3     H2       HT       0.417000        1.0080           0
      6745 WT1      2012     TIP3     OH2      OT      -0.834000       15.9994           0
      6746 WT1      2012     TIP3     H1       HT       0.417000        1.0080           0
      6747 WT1      2012     TIP3     H2       HT       0.417000        1.0080           0
      6748 WT1      2013     TIP3     OH2      OT      -0.834000       15.9994           0
      6749 WT1      2013     TIP3     H1       HT       0.417000        1.0080           0
      6750 WT1      2013     TIP3     H2       HT       0.417000        1.0080           0
      6751 WT1      2014     TIP3     OH2      OT      -0.834000       15.9994           0
      6752 WT1      2014     TIP3     H1       HT       0.417000        1.0080           0
      6753 WT1      2014     TIP3     H2       HT       0.417000        1.0080           0
      6754 WT1      2015     TIP3     OH2      OT      -0.834000       15.9994           0
      6755 WT1      2015     TIP3     H1       HT       0.417000        1.0080           0
      6756 WT1      2015     TIP3     H2       HT       0.417000        1.0080           0
      6757 WT1      2016     TIP3     OH2      OT      -0.834000       15.9994           0
      6758 WT1      2016     TIP3     H1       HT       0.417000        1.0080           0
      6759 WT1      2016     TIP3     H2       HT       0.417000        1.0080           0
      6760 WT1      2017     TIP3     OH2      OT      -0.834000       15.9994           0
      6761 WT1      2017     TIP3     H1       HT       0.417000        1.0080           0
      6762 WT1      2017     TIP3     H2       HT       0.417000        1.0080           0
      6763 WT1      2018     TIP3     OH2      OT      -0.834000       15.9994           0
      6764 WT1      2018     TIP3     H1       HT       0.417000        1.0080           0
      6765 WT1      2018     TIP3     H2       HT       0.417000        1.0080           0
      6766 WT1      2019     TIP3     OH2      OT      -0.834000       15.9994           0
      6767 WT1      2019     TIP3     H1       HT       0.417000        1.0080           0
      6768 WT1      2019     TIP3     H2       HT       0.417000        1.0080           0
      6769 WT1      2020     TIP3     OH2      OT      -0.834000       15.9994           0
      6770 WT1      2020     TIP3     H1       HT       0.417000        1.0080           0
      6771 WT1      2020     TIP3     H2       HT       0.417000        1.0080           0
      6772 WT1      2021     TIP3     OH2      OT      -0.834000       15.9994           0
      6773 WT1      2021     TIP3     H1       HT       0.417000        1.0080           0
      6774 WT1      2021     TIP3     H2       HT       0.417000        1.0080           0
      6775 WT1      2022     TIP3     OH2      OT      -0.834000       15.9994           0
      6776 WT1      2022     TIP3     H1       HT       0.417000        1.0080           0
      6777 WT1      2022     TIP3     H2       HT       0.417000        1.0080           0
      6778 WT1      2023     TIP3     OH2      OT      -0.834000       15.9994           0
      6779 WT1      2023     TIP3     H1       HT       0.417000        1.0080           0
      6780 WT1      2023     TIP3     H2       HT       0.417000        1.0080           0
      6781 WT1      2024     TIP3     OH2      OT      -0.834000       15.9994           0
      6782 WT1      2024     TIP3     H1       HT       0.417000        1.0080           0
      6783 WT1      2024     TIP3     H2       HT       0.417000        1.0080           0
      6784 WT1      2025     TIP3     OH2      OT      -0.834000       15.9994           0
      6785 WT1      2025     TIP3     H1       HT       0.417000        1.0080           0
      6786 WT1      2025     TIP3     H2       HT       0.417000        1.0080           0
      6787 WT1      2026     TIP3     OH2      OT      -0.834000       15.9994           0
      6788 WT1      2026     TIP3     H1       HT       0.417000        1.0080           0
      6789 WT1      2026     TIP3     H2       HT       0.417000        1.0080           0
      6790 WT1      2027     TIP3     OH2      OT      -0.834000       15.9994           0
      6791 WT1      2027     TIP3     H1       HT       0.417000        1.0080           0
      6792 WT1      2027     TIP3     H2       HT       0.417000        1.0080           0
      6793 WT1      2028     TIP3     OH2      OT      -0.834000       15.9994           0
      6794 WT1      2028     TIP3     H1       HT       0.417000        1.0080           0
      6795 WT1      2028     TIP3     H2       HT       0.417000        1.0080           0
      6796 WT1      2029     TIP3     OH2      OT      -0.834000       15.9994           0
      6797 WT1      2029     TIP3     H1       HT       0.417000        1.0080           0
      6798 WT1      2029     TIP3     H2       HT       0.417000        1.0080           0
      6799 WT1      2030     TIP3     OH2      OT      -0.834000       15.9994           0
      6800 WT1      2030     TIP3     H1       HT       0.417000        1.0080           0
      6801 WT1      2030     TIP3     H2       HT       0.417000        1.0080           0
      6802 WT1      2031     TIP3     OH2      OT      -0.834000       15.9994           0
      6803 WT1      2031     TIP3     H1       HT       0.417000        1.0080           0
      6804 WT1      2031     TIP3     H2       HT       0.417000        1.0080           0
      6805 WT1      2032     TIP3     OH2      OT      -0.834000       15.9994           0
      6806 WT1      2032     TIP3     H1       HT       0.417000        1.0080           0
      6807 WT1      2032     TIP3     H2       HT       0.417000        1.0080           0
      6808 WT1      2033     TIP3     OH2      OT      -0.834000       15.9994           0
      6809 WT1      2033     TIP3     H1       HT       0.417000        1.0080           0
      6810 WT1      2033     TIP3     H2       HT       0.417000        1.0080           0
      6811 WT1      2035     TIP3     OH2      OT      -0.834000       15.9994           0
      6812 WT1      2035     TIP3     H1       HT       0.417000        1.0080           0
      6813 WT1      2035     TIP3     H2       HT       0.417000        1.0080           0
      6814 WT1      2036     TIP3     OH2      OT      -0.834000       15.9994           0
      6815 WT1      2036     TIP3     H1       HT       0.417000        1.0080           0
      6816 WT1      2036     TIP3     H2       HT       0.417000        1.0080           0
      6817 WT1      2037     TIP3     OH2      OT      -0.834000       15.9994           0
      6818 WT1      2037     TIP3     H1       HT       0.417000        1.0080           0
      6819 WT1      2037     TIP3     H2       HT       0.417000        1.0080           0
      6820 WT1      2038     TIP3     OH2      OT      -0.834000       15.9994           0
      6821 WT1      2038     TIP3     H1       HT       0.417000        1.0080           0
      6822 WT1      2038     TIP3     H2       HT       0.417000        1.0080           0
      6823 WT1      2039     TIP3     OH2      OT      -0.834000       15.9994           0
      6824 WT1      2039     TIP3     H1       HT       0.417000        1.0080           0
      6825 WT1      2039     TIP3     H2       HT       0.417000        1.0080           0
      6826 WT1      2040     TIP3     OH2      OT      -0.834000       15.9994           0
      6827 WT1      2040     TIP3     H1       HT       0.417000        1.0080           0
      6828 WT1      2040     TIP3     H2       HT       0.417000        1.0080           0
      6829 WT1      2041     TIP3     OH2      OT      -0.834000       15.9994           0
      6830 WT1      2041     TIP3     H1       HT       0.417000        1.0080           0
      6831 WT1      2041     TIP3     H2       HT       0.417000        1.0080           0
      6832 WT1      2042     TIP3     OH2      OT      -0.834000       15.9994           0
      6833 WT1      2042     TIP3     H1       HT       0.417000        1.0080           0
      6834 WT1      2042     TIP3     H2       HT       0.417000        1.0080           0
      6835 WT1      2043     TIP3     OH2      OT      -0.834000       15.9994           0
      6836 WT1      2043     TIP3     H1       HT       0.417000        1.0080           0
      6837 WT1      2043     TIP3     H2       HT       0.417000        1.0080           0
      6838 WT1      2044     TIP3     OH2      OT      -0.834000       15.9994           0
      6839 WT1      2044     TIP3     H1       HT       0.417000        1.0080           0
      6840 WT1      2044     TIP3     H2       HT       0.417000        1.0080           0
      6841 WT1      2045     TIP3     OH2      OT      -0.834000       15.9994           0
      6842 WT1      2045     TIP3     H1       HT       0.417000        1.0080           0
      6843 WT1      2045     TIP3     H2       HT       0.417000        1.0080           0
      6844 WT1      2046     TIP3     OH2      OT      -0.834000       15.9994           0
      6845 WT1      2046     TIP3     H1       HT       0.417000        1.0080           0
      6846 WT1      2046     TIP3     H2       HT       0.417000        1.0080           0
      6847 WT1      2047     TIP3     OH2      OT      -0.834000       15.9994           0
      6848 WT1      2047     TIP3     H1       HT       0.417000        1.0080           0
      6849 WT1      2047     TIP3     H2       HT       0.417000        1.0080           0
      6850 WT1      2048     TIP3     OH2      OT      -0.834000       15.9994           0
      6851 WT1      2048     TIP3     H1       HT       0.417000        1.0080           0
      6852 WT1      2048     TIP3     H2       HT       0.417000        1.0080           0
      6853 WT1      2049     TIP3     OH2      OT      -0.834000       15.9994           0
      6854 WT1      2049     TIP3     H1       HT       0.417000        1.0080           0
      6855 WT1      2049     TIP3     H2       HT       0.417000        1.0080           0
      6856 WT1      2050     TIP3     OH2      OT      -0.834000       15.9994           0
      6857 WT1      2050     TIP3     H1       HT       0.417000        1.0080           0
      6858 WT1      2050     TIP3     H2       HT       0.417000        1.0080           0
      6859 WT1      2051     TIP3     OH2      OT      -0.834000       15.9994           0
      6860 WT1      2051     TIP3     H1       HT       0.417000        1.0080           0
      6861 WT1      2051     TIP3     H2       HT       0.417000        1.0080           0
      6862 WT1      2052     TIP3     OH2      OT      -0.834000       15.9994           0
      6863 WT1      2052     TIP3     H1       HT       0.417000        1.0080           0
      6864 WT1      2052     TIP3     H2       HT       0.417000        1.0080           0
      6865 WT1      2053     TIP3     OH2      OT      -0.834000       15.9994           0
      6866 WT1      2053     TIP3     H1       HT       0.417000        1.0080           0
      6867 WT1      2053     TIP3     H2       HT       0.417000        1.0080           0
      6868 WT1      2054     TIP3     OH2      OT      -0.834000       15.9994           0
      6869 WT1      2054     TIP3     H1       HT       0.417000        1.0080           0
      6870 WT1      2054     TIP3     H2       HT       0.417000        1.0080           0
      6871 WT1      2055     TIP3     OH2      OT      -0.834000       15.9994           0
      6872 WT1      2055     TIP3     H1       HT       0.417000        1.0080           0
      6873 WT1      2055     TIP3     H2       HT       0.417000        1.0080           0
      6874 WT1      2056     TIP3     OH2      OT      -0.834000       15.9994           0
      6875 WT1      2056     TIP3     H1       HT       0.417000        1.0080           0
      6876 WT1      2056     TIP3     H2       HT       0.417000        1.0080           0
      6877 WT1      2057     TIP3     OH2      OT      -0.834000       15.9994           0
      6878 WT1      2057     TIP3     H1       HT       0.417000        1.0080           0
      6879 WT1      2057     TIP3     H2       HT       0.417000        1.0080           0
      6880 WT1      2058     TIP3     OH2      OT      -0.834000       15.9994           0
      6881 WT1      2058     TIP3     H1       HT       0.417000        1.0080           0
      6882 WT1      2058     TIP3     H2       HT       0.417000        1.0080           0
      6883 WT1      2059     TIP3     OH2      OT      -0.834000       15.9994           0
      6884 WT1      2059     TIP3     H1       HT       0.417000        1.0080           0
      6885 WT1      2059     TIP3     H2       HT       0.417000        1.0080           0
      6886 WT1      2060     TIP3     OH2      OT      -0.834000       15.9994           0
      6887 WT1      2060     TIP3     H1       HT       0.417000        1.0080           0
      6888 WT1      2060     TIP3     H2       HT       0.417000        1.0080           0
      6889 WT1      2061     TIP3     OH2      OT      -0.834000       15.9994           0
      6890 WT1      2061     TIP3     H1       HT       0.417000        1.0080           0
      6891 WT1      2061     TIP3     H2       HT       0.417000        1.0080           0
      6892 WT1      2062     TIP3     OH2      OT      -0.834000       15.9994           0
      6893 WT1      2062     TIP3     H1       HT       0.417000        1.0080           0
      6894 WT1      2062     TIP3     H2       HT       0.417000        1.0080           0
      6895 WT1      2063     TIP3     OH2      OT      -0.834000       15.9994           0
      6896 WT1      2063     TIP3     H1       HT       0.417000        1.0080           0
      6897 WT1      2063     TIP3     H2       HT       0.417000        1.0080           0
      6898 WT1      2064     TIP3     OH2      OT      -0.834000       15.9994           0
      6899 WT1      2064     TIP3     H1       HT       0.417000        1.0080           0
      6900 WT1      2064     TIP3     H2       HT       0.417000        1.0080           0
      6901 WT1      2065     TIP3     OH2      OT      -0.834000       15.9994           0
      6902 WT1      2065     TIP3     H1       HT       0.417000        1.0080           0
      6903 WT1      2065     TIP3     H2       HT       0.417000        1.0080           0
      6904 WT1      2066     TIP3     OH2      OT      -0.834000       15.9994           0
      6905 WT1      2066     TIP3     H1       HT       0.417000        1.0080           0
      6906 WT1      2066     TIP3     H2       HT       0.417000        1.0080           0
      6907 WT1      2067     TIP3     OH2      OT      -0.834000       15.9994           0
      6908 WT1      2067     TIP3     H1       HT       0.417000        1.0080           0
      6909 WT1      2067     TIP3     H2       HT       0.417000        1.0080           0
      6910 WT1      2068     TIP3     OH2      OT      -0.834000       15.9994           0
      6911 WT1      2068     TIP3     H1       HT       0.417000        1.0080           0
      6912 WT1      2068     TIP3     H2       HT       0.417000        1.0080           0
      6913 WT1      2069     TIP3     OH2      OT      -0.834000       15.9994           0
      6914 WT1      2069     TIP3     H1       HT       0.417000        1.0080           0
      6915 WT1      2069     TIP3     H2       HT       0.417000        1.0080           0
      6916 WT1      2070     TIP3     OH2      OT      -0.834000       15.9994           0
      6917 WT1      2070     TIP3     H1       HT       0.417000        1.0080           0
      6918 WT1      2070     TIP3     H2       HT       0.417000        1.0080           0
      6919 WT1      2071     TIP3     OH2      OT      -0.834000       15.9994           0
      6920 WT1      2071     TIP3     H1       HT       0.417000        1.0080           0
      6921 WT1      2071     TIP3     H2       HT       0.417000        1.0080           0
      6922 WT1      2072     TIP3     OH2      OT      -0.834000       15.9994           0
      6923 WT1      2072     TIP3     H1       HT       0.417000        1.0080           0
      6924 WT1      2072     TIP3     H2       HT       0.417000        1.0080           0
      6925 WT1      2073     TIP3     OH2      OT      -0.834000       15.9994           0
      6926 WT1      2073     TIP3     H1       HT       0.417000        1.0080           0
      6927 WT1      2073     TIP3     H2       HT       0.417000        1.0080           0
      6928 WT1      2074     TIP3     OH2      OT      -0.834000       15.9994           0
      6929 WT1      2074     TIP3     H1       HT       0.417000        1.0080           0
      6930 WT1      2074     TIP3     H2       HT       0.417000        1.0080           0
      6931 WT1      2075     TIP3     OH2      OT      -0.834000       15.9994           0
      6932 WT1      2075     TIP3     H1       HT       0.417000        1.0080           0
      6933 WT1      2075     TIP3     H2       HT       0.417000        1.0080           0
      6934 WT1      2076     TIP3     OH2      OT      -0.834000       15.9994           0
      6935 WT1      2076     TIP3     H1       HT       0.417000        1.0080           0
      6936 WT1      2076     TIP3     H2       HT       0.417000        1.0080           0
      6937 WT1      2077     TIP3     OH2      OT      -0.834000       15.9994           0
      6938 WT1      2077     TIP3     H1       HT       0.417000        1.0080           0
      6939 WT1      2077     TIP3     H2       HT       0.417000        1.0080           0
      6940 WT1      2078     TIP3     OH2      OT      -0.834000       15.9994           0
      6941 WT1      2078     TIP3     H1       HT       0.417000        1.0080           0
      6942 WT1      2078     TIP3     H2       HT       0.417000        1.0080           0
      6943 WT1      2079     TIP3     OH2      OT      -0.834000       15.9994           0
      6944 WT1      2079     TIP3     H1       HT       0.417000        1.0080           0
      6945 WT1      2079     TIP3     H2       HT       0.417000        1.0080           0
      6946 WT1      2080     TIP3     OH2      OT      -0.834000       15.9994           0
      6947 WT1      2080     TIP3     H1       HT       0.417000        1.0080           0
      6948 WT1      2080     TIP3     H2       HT       0.417000        1.0080           0
      6949 WT1      2081     TIP3     OH2      OT      -0.834000       15.9994           0
      6950 WT1      2081     TIP3     H1       HT       0.417000        1.0080           0
      6951 WT1      2081     TIP3     H2       HT       0.417000        1.0080           0
      6952 WT1      2082     TIP3     OH2      OT      -0.834000       15.9994           0
      6953 WT1      2082     TIP3     H1       HT       0.417000        1.0080           0
      6954 WT1      2082     TIP3     H2       HT       0.417000        1.0080           0
      6955 WT1      2083     TIP3     OH2      OT      -0.834000       15.9994           0
      6956 WT1      2083     TIP3     H1       HT       0.417000        1.0080           0
      6957 WT1      2083     TIP3     H2       HT       0.417000        1.0080           0
      6958 WT1      2084     TIP3     OH2      OT      -0.834000       15.9994           0
      6959 WT1      2084     TIP3     H1       HT       0.417000        1.0080           0
      6960 WT1      2084     TIP3     H2       HT       0.417000        1.0080           0
      6961 WT1      2086     TIP3     OH2      OT      -0.834000       15.9994           0
      6962 WT1      2086     TIP3     H1       HT       0.417000        1.0080           0
      6963 WT1      2086     TIP3     H2       HT       0.417000        1.0080           0
      6964 WT1      2087     TIP3     OH2      OT      -0.834000       15.9994           0
      6965 WT1      2087     TIP3     H1       HT       0.417000        1.0080           0
      6966 WT1      2087     TIP3     H2       HT       0.417000        1.0080           0
      6967 WT1      2088     TIP3     OH2      OT      -0.834000       15.9994           0
      6968 WT1      2088     TIP3     H1       HT       0.417000        1.0080           0
      6969 WT1      2088     TIP3     H2       HT       0.417000        1.0080           0
      6970 WT1      2089     TIP3     OH2      OT      -0.834000       15.9994           0
      6971 WT1      2089     TIP3     H1       HT       0.417000        1.0080           0
      6972 WT1      2089     TIP3     H2       HT       0.417000        1.0080           0
      6973 WT1      2090     TIP3     OH2      OT      -0.834000       15.9994           0
      6974 WT1      2090     TIP3     H1       HT       0.417000        1.0080           0
      6975 WT1      2090     TIP3     H2       HT       0.417000        1.0080           0
      6976 WT1      2091     TIP3     OH2      OT      -0.834000       15.9994           0
      6977 WT1      2091     TIP3     H1       HT       0.417000        1.0080           0
      6978 WT1      2091     TIP3     H2       HT       0.417000        1.0080           0
      6979 WT1      2092     TIP3     OH2      OT      -0.834000       15.9994           0
      6980 WT1      2092     TIP3     H1       HT       0.417000        1.0080           0
      6981 WT1      2092     TIP3     H2       HT       0.417000        1.0080           0
      6982 WT1      2093     TIP3     OH2      OT      -0.834000       15.9994           0
      6983 WT1      2093     TIP3     H1       HT       0.417000        1.0080           0
      6984 WT1      2093     TIP3     H2       HT       0.417000        1.0080           0
      6985 WT1      2094     TIP3     OH2      OT      -0.834000       15.9994           0
      6986 WT1      2094     TIP3     H1       HT       0.417000        1.0080           0
      6987 WT1      2094     TIP3     H2       HT       0.417000        1.0080           0
      6988 WT1      2095     TIP3     OH2      OT      -0.834000       15.9994           0
      6989 WT1      2095     TIP3     H1       HT       0.417000        1.0080           0
      6990 WT1      2095     TIP3     H2       HT       0.417000        1.0080           0
      6991 WT1      2096     TIP3     OH2      OT      -0.834000       15.9994           0
      6992 WT1      2096     TIP3     H1       HT       0.417000        1.0080           0
      6993 WT1      2096     TIP3     H2       HT       0.417000        1.0080           0
      6994 WT1      2097     TIP3     OH2      OT      -0.834000       15.9994           0
      6995 WT1      2097     TIP3     H1       HT       0.417000        1.0080           0
      6996 WT1      2097     TIP3     H2       HT       0.417000        1.0080           0
      6997 WT1      2098     TIP3     OH2      OT      -0.834000       15.9994           0
      6998 WT1      2098     TIP3     H1       HT       0.417000        1.0080           0
      6999 WT1      2098     TIP3     H2       HT       0.417000        1.0080           0
      7000 WT1      2099     TIP3     OH2      OT      -0.834000       15.9994           0
      7001 WT1      2099     TIP3     H1       HT       0.417000        1.0080           0
      7002 WT1      2099     TIP3     H2       HT       0.417000        1.0080           0
      7003 WT1      2100     TIP3     OH2      OT      -0.834000       15.9994           0
      7004 WT1      2100     TIP3     H1       HT       0.417000        1.0080           0
      7005 WT1      2100     TIP3     H2       HT       0.417000        1.0080           0
      7006 WT1      2102     TIP3     OH2      OT      -0.834000       15.9994           0
      7007 WT1      2102     TIP3     H1       HT       0.417000        1.0080           0
      7008 WT1      2102     TIP3     H2       HT       0.417000        1.0080           0
      7009 WT1      2103     TIP3     OH2      OT      -0.834000       15.9994           0
      7010 WT1      2103     TIP3     H1       HT       0.417000        1.0080           0
      7011 WT1      2103     TIP3     H2       HT       0.417000        1.0080           0
      7012 WT1      2104     TIP3     OH2      OT      -0.834000       15.9994           0
      7013 WT1      2104     TIP3     H1       HT       0.417000        1.0080           0
      7014 WT1      2104     TIP3     H2       HT       0.417000        1.0080           0
      7015 WT1      2105     TIP3     OH2      OT      -0.834000       15.9994           0
      7016 WT1      2105     TIP3     H1       HT       0.417000        1.0080           0
      7017 WT1      2105     TIP3     H2       HT       0.417000        1.0080           0
      7018 WT1      2106     TIP3     OH2      OT      -0.834000       15.9994           0
      7019 WT1      2106     TIP3     H1       HT       0.417000        1.0080           0
      7020 WT1      2106     TIP3     H2       HT       0.417000        1.0080           0
      7021 WT1      2107     TIP3     OH2      OT      -0.834000       15.9994           0
      7022 WT1      2107     TIP3     H1       HT       0.417000        1.0080           0
      7023 WT1      2107     TIP3     H2       HT       0.417000        1.0080           0
      7024 WT1      2108     TIP3     OH2      OT      -0.834000       15.9994           0
      7025 WT1      2108     TIP3     H1       HT       0.417000        1.0080           0
      7026 WT1      2108     TIP3     H2       HT       0.417000        1.0080           0
      7027 WT1      2109     TIP3     OH2      OT      -0.834000       15.9994           0
      7028 WT1      2109     TIP3     H1       HT       0.417000        1.0080           0
      7029 WT1      2109     TIP3     H2       HT       0.417000        1.0080           0
      7030 WT1      2110     TIP3     OH2      OT      -0.834000       15.9994           0
      7031 WT1      2110     TIP3     H1       HT       0.417000        1.0080           0
      7032 WT1      2110     TIP3     H2       HT       0.417000        1.0080           0
      7033 WT1      2111     TIP3     OH2      OT      -0.834000       15.9994           0
      7034 WT1      2111     TIP3     H1       HT       0.417000        1.0080           0
      7035 WT1      2111     TIP3     H2       HT       0.417000        1.0080           0
      7036 WT1      2112     TIP3     OH2      OT      -0.834000       15.9994           0
      7037 WT1      2112     TIP3     H1       HT       0.417000        1.0080           0
      7038 WT1      2112     TIP3     H2       HT       0.417000        1.0080           0
      7039 WT1      2113     TIP3     OH2      OT      -0.834000       15.9994           0
      7040 WT1      2113     TIP3     H1       HT       0.417000        1.0080           0
      7041 WT1      2113     TIP3     H2       HT       0.417000        1.0080           0
      7042 WT1      2114     TIP3     OH2      OT      -0.834000       15.9994           0
      7043 WT1      2114     TIP3     H1       HT       0.417000        1.0080           0
      7044 WT1      2114     TIP3     H2       HT       0.417000        1.0080           0
      7045 WT1      2115     TIP3     OH2      OT      -0.834000       15.9994           0
      7046 WT1      2115     TIP3     H1       HT       0.417000        1.0080           0
      7047 WT1      2115     TIP3     H2       HT       0.417000        1.0080           0
      7048 WT1      2116     TIP3     OH2      OT      -0.834000       15.9994           0
      7049 WT1      2116     TIP3     H1       HT       0.417000        1.0080           0
      7050 WT1      2116     TIP3     H2       HT       0.417000        1.0080           0
      7051 WT1      2117     TIP3     OH2      OT      -0.834000       15.9994           0
      7052 WT1      2117     TIP3     H1       HT       0.417000        1.0080           0
      7053 WT1      2117     TIP3     H2       HT       0.417000        1.0080           0
      7054 WT1      2118     TIP3     OH2      OT      -0.834000       15.9994           0
      7055 WT1      2118     TIP3     H1       HT       0.417000        1.0080           0
      7056 WT1      2118     TIP3     H2       HT       0.417000        1.0080           0
      7057 WT1      2119     TIP3     OH2      OT      -0.834000       15.9994           0
      7058 WT1      2119     TIP3     H1       HT       0.417000        1.0080           0
      7059 WT1      2119     TIP3     H2       HT       0.417000        1.0080           0
      7060 WT1      2120     TIP3     OH2      OT      -0.834000       15.9994           0
      7061 WT1      2120     TIP3     H1       HT       0.417000        1.0080           0
      7062 WT1      2120     TIP3     H2       HT       0.417000        1.0080           0
      7063 WT1      2121     TIP3     OH2      OT      -0.834000       15.9994           0
      7064 WT1      2121     TIP3     H1       HT       0.417000        1.0080           0
      7065 WT1      2121     TIP3     H2       HT       0.417000        1.0080           0
      7066 WT1      2122     TIP3     OH2      OT      -0.834000       15.9994           0
      7067 WT1      2122     TIP3     H1       HT       0.417000        1.0080           0
      7068 WT1      2122     TIP3     H2       HT       0.417000        1.0080           0
      7069 WT1      2123     TIP3     OH2      OT      -0.834000       15.9994           0
      7070 WT1      2123     TIP3     H1       HT       0.417000        1.0080           0
      7071 WT1      2123     TIP3     H2       HT       0.417000        1.0080           0
      7072 WT1      2124     TIP3     OH2      OT      -0.834000       15.9994           0
      7073 WT1      2124     TIP3     H1       HT       0.417000        1.0080           0
      7074 WT1      2124     TIP3     H2       HT       0.417000        1.0080           0
      7075 WT1      2125     TIP3     OH2      OT      -0.834000       15.9994           0
      7076 WT1      2125     TIP3     H1       HT       0.417000        1.0080           0
      7077 WT1      2125     TIP3     H2       HT       0.417000        1.0080           0
      7078 WT1      2126     TIP3     OH2      OT      -0.834000       15.9994           0
      7079 WT1      2126     TIP3     H1       HT       0.417000        1.0080           0
      7080 WT1      2126     TIP3     H2       HT       0.417000        1.0080           0
      7081 WT1      2127     TIP3     OH2      OT      -0.834000       15.9994           0
      7082 WT1      2127     TIP3     H1       HT       0.417000        1.0080           0
      7083 WT1      2127     TIP3     H2       HT       0.417000        1.0080           0
      7084 WT1      2128     TIP3     OH2      OT      -0.834000       15.9994           0
      7085 WT1      2128     TIP3     H1       HT       0.417000        1.0080           0
      7086 WT1      2128     TIP3     H2       HT       0.417000        1.0080           0
      7087 WT1      2129     TIP3     OH2      OT      -0.834000       15.9994           0
      7088 WT1      2129     TIP3     H1       HT       0.417000        1.0080           0
      7089 WT1      2129     TIP3     H2       HT       0.417000        1.0080           0
      7090 WT1      2130     TIP3     OH2      OT      -0.834000       15.9994           0
      7091 WT1      2130     TIP3     H1       HT       0.417000        1.0080           0
      7092 WT1      2130     TIP3     H2       HT       0.417000        1.0080           0
      7093 WT1      2131     TIP3     OH2      OT      -0.834000       15.9994           0
      7094 WT1      2131     TIP3     H1       HT       0.417000        1.0080           0
      7095 WT1      2131     TIP3     H2       HT       0.417000        1.0080           0
      7096 WT1      2132     TIP3     OH2      OT      -0.834000       15.9994           0
      7097 WT1      2132     TIP3     H1       HT       0.417000        1.0080           0
      7098 WT1      2132     TIP3     H2       HT       0.417000        1.0080           0
      7099 WT1      2133     TIP3     OH2      OT      -0.834000       15.9994           0
      7100 WT1      2133     TIP3     H1       HT       0.417000        1.0080           0
      7101 WT1      2133     TIP3     H2       HT       0.417000        1.0080           0
      7102 WT1      2134     TIP3     OH2      OT      -0.834000       15.9994           0
      7103 WT1      2134     TIP3     H1       HT       0.417000        1.0080           0
      7104 WT1      2134     TIP3     H2       HT       0.417000        1.0080           0
      7105 WT1      2135     TIP3     OH2      OT      -0.834000       15.9994           0
      7106 WT1      2135     TIP3     H1       HT       0.417000        1.0080           0
      7107 WT1      2135     TIP3     H2       HT       0.417000        1.0080           0
      7108 WT1      2136     TIP3     OH2      OT      -0.834000       15.9994           0
      7109 WT1      2136     TIP3     H1       HT       0.417000        1.0080           0
      7110 WT1      2136     TIP3     H2       HT       0.417000        1.0080           0
      7111 WT1      2137     TIP3     OH2      OT      -0.834000       15.9994           0
      7112 WT1      2137     TIP3     H1       HT       0.417000        1.0080           0
      7113 WT1      2137     TIP3     H2       HT       0.417000        1.0080           0
      7114 WT1      2138     TIP3     OH2      OT      -0.834000       15.9994           0
      7115 WT1      2138     TIP3     H1       HT       0.417000        1.0080           0
      7116 WT1      2138     TIP3     H2       HT       0.417000        1.0080           0
      7117 WT1      2139     TIP3     OH2      OT      -0.834000       15.9994           0
      7118 WT1      2139     TIP3     H1       HT       0.417000        1.0080           0
      7119 WT1      2139     TIP3     H2       HT       0.417000        1.0080           0
      7120 WT1      2140     TIP3     OH2      OT      -0.834000       15.9994           0
      7121 WT1      2140     TIP3     H1       HT       0.417000        1.0080           0
      7122 WT1      2140     TIP3     H2       HT       0.417000        1.0080           0
      7123 WT1      2141     TIP3     OH2      OT      -0.834000       15.9994           0
      7124 WT1      2141     TIP3     H1       HT       0.417000        1.0080           0
      7125 WT1      2141     TIP3     H2       HT       0.417000        1.0080           0
      7126 WT1      2142     TIP3     OH2      OT      -0.834000       15.9994           0
      7127 WT1      2142     TIP3     H1       HT       0.417000        1.0080           0
      7128 WT1      2142     TIP3     H2       HT       0.417000        1.0080           0
      7129 WT1      2143     TIP3     OH2      OT      -0.834000       15.9994           0
      7130 WT1      2143     TIP3     H1       HT       0.417000        1.0080           0
      7131 WT1      2143     TIP3     H2       HT       0.417000        1.0080           0
      7132 WT1      2144     TIP3     OH2      OT      -0.834000       15.9994           0
      7133 WT1      2144     TIP3     H1       HT       0.417000        1.0080           0
      7134 WT1      2144     TIP3     H2       HT       0.417000        1.0080           0
      7135 WT1      2145     TIP3     OH2      OT      -0.834000       15.9994           0
      7136 WT1      2145     TIP3     H1       HT       0.417000        1.0080           0
      7137 WT1      2145     TIP3     H2       HT       0.417000        1.0080           0
      7138 WT1      2146     TIP3     OH2      OT      -0.834000       15.9994           0
      7139 WT1      2146     TIP3     H1       HT       0.417000        1.0080           0
      7140 WT1      2146     TIP3     H2       HT       0.417000        1.0080           0
      7141 WT1      2147     TIP3     OH2      OT      -0.834000       15.9994           0
      7142 WT1      2147     TIP3     H1       HT       0.417000        1.0080           0
      7143 WT1      2147     TIP3     H2       HT       0.417000        1.0080           0
      7144 WT1      2148     TIP3     OH2      OT      -0.834000       15.9994           0
      7145 WT1      2148     TIP3     H1       HT       0.417000        1.0080           0
      7146 WT1      2148     TIP3     H2       HT       0.417000        1.0080           0
      7147 WT1      2149     TIP3     OH2      OT      -0.834000       15.9994           0
      7148 WT1      2149     TIP3     H1       HT       0.417000        1.0080           0
      7149 WT1      2149     TIP3     H2       HT       0.417000        1.0080           0
      7150 WT1      2150     TIP3     OH2      OT      -0.834000       15.9994           0
      7151 WT1      2150     TIP3     H1       HT       0.417000        1.0080           0
      7152 WT1      2150     TIP3     H2       HT       0.417000        1.0080           0
      7153 WT1      2151     TIP3     OH2      OT      -0.834000       15.9994           0
      7154 WT1      2151     TIP3     H1       HT       0.417000        1.0080           0
      7155 WT1      2151     TIP3     H2       HT       0.417000        1.0080           0
      7156 WT1      2152     TIP3     OH2      OT      -0.834000       15.9994           0
      7157 WT1      2152     TIP3     H1       HT       0.417000        1.0080           0
      7158 WT1      2152     TIP3     H2       HT       0.417000        1.0080           0
      7159 WT1      2153     TIP3     OH2      OT      -0.834000       15.9994           0
      7160 WT1      2153     TIP3     H1       HT       0.417000        1.0080           0
      7161 WT1      2153     TIP3     H2       HT       0.417000        1.0080           0
      7162 WT1      2154     TIP3     OH2      OT      -0.834000       15.9994           0
      7163 WT1      2154     TIP3     H1       HT       0.417000        1.0080           0
      7164 WT1      2154     TIP3     H2       HT       0.417000        1.0080           0
      7165 WT1      2155     TIP3     OH2      OT      -0.834000       15.9994           0
      7166 WT1      2155     TIP3     H1       HT       0.417000        1.0080           0
      7167 WT1      2155     TIP3     H2       HT       0.417000        1.0080           0
      7168 WT1      2156     TIP3     OH2      OT      -0.834000       15.9994           0
      7169 WT1      2156     TIP3     H1       HT       0.417000        1.0080           0
      7170 WT1      2156     TIP3     H2       HT       0.417000        1.0080           0
      7171 WT1      2157     TIP3     OH2      OT      -0.834000       15.9994           0
      7172 WT1      2157     TIP3     H1       HT       0.417000        1.0080           0
      7173 WT1      2157     TIP3     H2       HT       0.417000        1.0080           0
      7174 WT1      2158     TIP3     OH2      OT      -0.834000       15.9994           0
      7175 WT1      2158     TIP3     H1       HT       0.417000        1.0080           0
      7176 WT1      2158     TIP3     H2       HT       0.417000        1.0080           0
      7177 WT1      2159     TIP3     OH2      OT      -0.834000       15.9994           0
      7178 WT1      2159     TIP3     H1       HT       0.417000        1.0080           0
      7179 WT1      2159     TIP3     H2       HT       0.417000        1.0080           0
      7180 WT1      2160     TIP3     OH2      OT      -0.834000       15.9994           0
      7181 WT1      2160     TIP3     H1       HT       0.417000        1.0080           0
      7182 WT1      2160     TIP3     H2       HT       0.417000        1.0080           0
      7183 WT1      2161     TIP3     OH2      OT      -0.834000       15.9994           0
      7184 WT1      2161     TIP3     H1       HT       0.417000        1.0080           0
      7185 WT1      2161     TIP3     H2       HT       0.417000        1.0080           0
      7186 WT1      2162     TIP3     OH2      OT      -0.834000       15.9994           0
      7187 WT1      2162     TIP3     H1       HT       0.417000        1.0080           0
      7188 WT1      2162     TIP3     H2       HT       0.417000        1.0080           0
      7189 WT1      2163     TIP3     OH2      OT      -0.834000       15.9994           0
      7190 WT1      2163     TIP3     H1       HT       0.417000        1.0080           0
      7191 WT1      2163     TIP3     H2       HT       0.417000        1.0080           0
      7192 WT1      2165     TIP3     OH2      OT      -0.834000       15.9994           0
      7193 WT1      2165     TIP3     H1       HT       0.417000        1.0080           0
      7194 WT1      2165     TIP3     H2       HT       0.417000        1.0080           0
      7195 WT1      2166     TIP3     OH2      OT      -0.834000       15.9994           0
      7196 WT1      2166     TIP3     H1       HT       0.417000        1.0080           0
      7197 WT1      2166     TIP3     H2       HT       0.417000        1.0080           0
      7198 WT1      2167     TIP3     OH2      OT      -0.834000       15.9994           0
      7199 WT1      2167     TIP3     H1       HT       0.417000        1.0080           0
      7200 WT1      2167     TIP3     H2       HT       0.417000        1.0080           0
      7201 WT1      2168     TIP3     OH2      OT      -0.834000       15.9994           0
      7202 WT1      2168     TIP3     H1       HT       0.417000        1.0080           0
      7203 WT1      2168     TIP3     H2       HT       0.417000        1.0080           0
      7204 WT1      2169     TIP3     OH2      OT      -0.834000       15.9994           0
      7205 WT1      2169     TIP3     H1       HT       0.417000        1.0080           0
      7206 WT1      2169     TIP3     H2       HT       0.417000        1.0080           0
      7207 WT1      2170     TIP3     OH2      OT      -0.834000       15.9994           0
      7208 WT1      2170     TIP3     H1       HT       0.417000        1.0080           0
      7209 WT1      2170     TIP3     H2       HT       0.417000        1.0080           0
      7210 WT1      2171     TIP3     OH2      OT      -0.834000       15.9994           0
      7211 WT1      2171     TIP3     H1       HT       0.417000        1.0080           0
      7212 WT1      2171     TIP3     H2       HT       0.417000        1.0080           0
      7213 WT1      2172     TIP3     OH2      OT      -0.834000       15.9994           0
      7214 WT1      2172     TIP3     H1       HT       0.417000        1.0080           0
      7215 WT1      2172     TIP3     H2       HT       0.417000        1.0080           0
      7216 WT1      2173     TIP3     OH2      OT      -0.834000       15.9994           0
      7217 WT1      2173     TIP3     H1       HT       0.417000        1.0080           0
      7218 WT1      2173     TIP3     H2       HT       0.417000        1.0080           0
      7219 WT1      2174     TIP3     OH2      OT      -0.834000       15.9994           0
      7220 WT1      2174     TIP3     H1       HT       0.417000        1.0080           0
      7221 WT1      2174     TIP3     H2       HT       0.417000        1.0080           0
      7222 WT1      2175     TIP3     OH2      OT      -0.834000       15.9994           0
      7223 WT1      2175     TIP3     H1       HT       0.417000        1.0080           0
      7224 WT1      2175     TIP3     H2       HT       0.417000        1.0080           0
      7225 WT1      2176     TIP3     OH2      OT      -0.834000       15.9994           0
      7226 WT1      2176     TIP3     H1       HT       0.417000        1.0080           0
      7227 WT1      2176     TIP3     H2       HT       0.417000        1.0080           0
      7228 WT1      2177     TIP3     OH2      OT      -0.834000       15.9994           0
      7229 WT1      2177     TIP3     H1       HT       0.417000        1.0080           0
      7230 WT1      2177     TIP3     H2       HT       0.417000        1.0080           0
      7231 WT1      2178     TIP3     OH2      OT      -0.834000       15.9994           0
      7232 WT1      2178     TIP3     H1       HT       0.417000        1.0080           0
      7233 WT1      2178     TIP3     H2       HT       0.417000        1.0080           0
      7234 WT1      2180     TIP3     OH2      OT      -0.834000       15.9994           0
      7235 WT1      2180     TIP3     H1       HT       0.417000        1.0080           0
      7236 WT1      2180     TIP3     H2       HT       0.417000        1.0080           0
      7237 WT1      2181     TIP3     OH2      OT      -0.834000       15.9994           0
      7238 WT1      2181     TIP3     H1       HT       0.417000        1.0080           0
      7239 WT1      2181     TIP3     H2       HT       0.417000        1.0080           0
      7240 WT1      2182     TIP3     OH2      OT      -0.834000       15.9994           0
      7241 WT1      2182     TIP3     H1       HT       0.417000        1.0080           0
      7242 WT1      2182     TIP3     H2       HT       0.417000        1.0080           0
      7243 WT1      2183     TIP3     OH2      OT      -0.834000       15.9994           0
      7244 WT1      2183     TIP3     H1       HT       0.417000        1.0080           0
      7245 WT1      2183     TIP3     H2       HT       0.417000        1.0080           0
      7246 WT1      2184     TIP3     OH2      OT      -0.834000       15.9994           0
      7247 WT1      2184     TIP3     H1       HT       0.417000        1.0080           0
      7248 WT1      2184     TIP3     H2       HT       0.417000        1.0080           0
      7249 WT1      2185     TIP3     OH2      OT      -0.834000       15.9994           0
      7250 WT1      2185     TIP3     H1       HT       0.417000        1.0080           0
      7251 WT1      2185     TIP3     H2       HT       0.417000        1.0080           0
      7252 WT1      2186     TIP3     OH2      OT      -0.834000       15.9994           0
      7253 WT1      2186     TIP3     H1       HT       0.417000        1.0080           0
      7254 WT1      2186     TIP3     H2       HT       0.417000        1.0080           0
      7255 WT1      2187     TIP3     OH2      OT      -0.834000       15.9994           0
      7256 WT1      2187     TIP3     H1       HT       0.417000        1.0080           0
      7257 WT1      2187     TIP3     H2       HT       0.417000        1.0080           0
      7258 WT1      2188     TIP3     OH2      OT      -0.834000       15.9994           0
      7259 WT1      2188     TIP3     H1       HT       0.417000        1.0080           0
      7260 WT1      2188     TIP3     H2       HT       0.417000        1.0080           0
      7261 WT1      2189     TIP3     OH2      OT      -0.834000       15.9994           0
      7262 WT1      2189     TIP3     H1       HT       0.417000        1.0080           0
      7263 WT1      2189     TIP3     H2       HT       0.417000        1.0080           0
      7264 WT1      2190     TIP3     OH2      OT      -0.834000       15.9994           0
      7265 WT1      2190     TIP3     H1       HT       0.417000        1.0080           0
      7266 WT1      2190     TIP3     H2       HT       0.417000        1.0080           0
      7267 WT1      2191     TIP3     OH2      OT      -0.834000       15.9994           0
      7268 WT1      2191     TIP3     H1       HT       0.417000        1.0080           0
      7269 WT1      2191     TIP3     H2       HT       0.417000        1.0080           0
      7270 WT1      2192     TIP3     OH2      OT      -0.834000       15.9994           0
      7271 WT1      2192     TIP3     H1       HT       0.417000        1.0080           0
      7272 WT1      2192     TIP3     H2       HT       0.417000        1.0080           0
      7273 WT1      2193     TIP3     OH2      OT      -0.834000       15.9994           0
      7274 WT1      2193     TIP3     H1       HT       0.417000        1.0080           0
      7275 WT1      2193     TIP3     H2       HT       0.417000        1.0080           0
      7276 WT1      2194     TIP3     OH2      OT      -0.834000       15.9994           0
      7277 WT1      2194     TIP3     H1       HT       0.417000        1.0080           0
      7278 WT1      2194     TIP3     H2       HT       0.417000        1.0080           0
      7279 WT1      2195     TIP3     OH2      OT      -0.834000       15.9994           0
      7280 WT1      2195     TIP3     H1       HT       0.417000        1.0080           0
      7281 WT1      2195     TIP3     H2       HT       0.417000        1.0080           0
      7282 WT1      2196     TIP3     OH2      OT      -0.834000       15.9994           0
      7283 WT1      2196     TIP3     H1       HT       0.417000        1.0080           0
      7284 WT1      2196     TIP3     H2       HT       0.417000        1.0080           0
      7285 WT1      2197     TIP3     OH2      OT      -0.834000       15.9994           0
      7286 WT1      2197     TIP3     H1       HT       0.417000        1.0080           0
      7287 WT1      2197     TIP3     H2       HT       0.417000        1.0080           0
      7288 WT1      2198     TIP3     OH2      OT      -0.834000       15.9994           0
      7289 WT1      2198     TIP3     H1       HT       0.417000        1.0080           0
      7290 WT1      2198     TIP3     H2       HT       0.417000        1.0080           0
      7291 WT1      2199     TIP3     OH2      OT      -0.834000       15.9994           0
      7292 WT1      2199     TIP3     H1       HT       0.417000        1.0080           0
      7293 WT1      2199     TIP3     H2       HT       0.417000        1.0080           0
      7294 WT1      2200     TIP3     OH2      OT      -0.834000       15.9994           0
      7295 WT1      2200     TIP3     H1       HT       0.417000        1.0080           0
      7296 WT1      2200     TIP3     H2       HT       0.417000        1.0080           0
      7297 WT1      2201     TIP3     OH2      OT      -0.834000       15.9994           0
      7298 WT1      2201     TIP3     H1       HT       0.417000        1.0080           0
      7299 WT1      2201     TIP3     H2       HT       0.417000        1.0080           0
      7300 WT1      2202     TIP3     OH2      OT      -0.834000       15.9994           0
      7301 WT1      2202     TIP3     H1       HT       0.417000        1.0080           0
      7302 WT1      2202     TIP3     H2       HT       0.417000        1.0080           0
      7303 WT1      2203     TIP3     OH2      OT      -0.834000       15.9994           0
      7304 WT1      2203     TIP3     H1       HT       0.417000        1.0080           0
      7305 WT1      2203     TIP3     H2       HT       0.417000        1.0080           0
      7306 WT1      2204     TIP3     OH2      OT      -0.834000       15.9994           0
      7307 WT1      2204     TIP3     H1       HT       0.417000        1.0080           0
      7308 WT1      2204     TIP3     H2       HT       0.417000        1.0080           0
      7309 WT1      2205     TIP3     OH2      OT      -0.834000       15.9994           0
      7310 WT1      2205     TIP3     H1       HT       0.417000        1.0080           0
      7311 WT1      2205     TIP3     H2       HT       0.417000        1.0080           0
      7312 WT1      2206     TIP3     OH2      OT      -0.834000       15.9994           0
      7313 WT1      2206     TIP3     H1       HT       0.417000        1.0080           0
      7314 WT1      2206     TIP3     H2       HT       0.417000        1.0080           0
      7315 WT1      2207     TIP3     OH2      OT      -0.834000       15.9994           0
      7316 WT1      2207     TIP3     H1       HT       0.417000        1.0080           0
      7317 WT1      2207     TIP3     H2       HT       0.417000        1.0080           0
      7318 WT1      2208     TIP3     OH2      OT      -0.834000       15.9994           0
      7319 WT1      2208     TIP3     H1       HT       0.417000        1.0080           0
      7320 WT1      2208     TIP3     H2       HT       0.417000        1.0080           0
      7321 WT1      2209     TIP3     OH2      OT      -0.834000       15.9994           0
      7322 WT1      2209     TIP3     H1       HT       0.417000        1.0080           0
      7323 WT1      2209     TIP3     H2       HT       0.417000        1.0080           0
      7324 WT1      2210     TIP3     OH2      OT      -0.834000       15.9994           0
      7325 WT1      2210     TIP3     H1       HT       0.417000        1.0080           0
      7326 WT1      2210     TIP3     H2       HT       0.417000        1.0080           0
      7327 WT1      2211     TIP3     OH2      OT      -0.834000       15.9994           0
      7328 WT1      2211     TIP3     H1       HT       0.417000        1.0080           0
      7329 WT1      2211     TIP3     H2       HT       0.417000        1.0080           0
      7330 WT1      2212     TIP3     OH2      OT      -0.834000       15.9994           0
      7331 WT1      2212     TIP3     H1       HT       0.417000        1.0080           0
      7332 WT1      2212     TIP3     H2       HT       0.417000        1.0080           0
      7333 WT1      2213     TIP3     OH2      OT      -0.834000       15.9994           0
      7334 WT1      2213     TIP3     H1       HT       0.417000        1.0080           0
      7335 WT1      2213     TIP3     H2       HT       0.417000        1.0080           0
      7336 WT1      2214     TIP3     OH2      OT      -0.834000       15.9994           0
      7337 WT1      2214     TIP3     H1       HT       0.417000        1.0080           0
      7338 WT1      2214     TIP3     H2       HT       0.417000        1.0080           0
      7339 WT1      2215     TIP3     OH2      OT      -0.834000       15.9994           0
      7340 WT1      2215     TIP3     H1       HT       0.417000        1.0080           0
      7341 WT1      2215     TIP3     H2       HT       0.417000        1.0080           0
      7342 WT1      2216     TIP3     OH2      OT      -0.834000       15.9994           0
      7343 WT1      2216     TIP3     H1       HT       0.417000        1.0080           0
      7344 WT1      2216     TIP3     H2       HT       0.417000        1.0080           0
      7345 WT1      2217     TIP3     OH2      OT      -0.834000       15.9994           0
      7346 WT1      2217     TIP3     H1       HT       0.417000        1.0080           0
      7347 WT1      2217     TIP3     H2       HT       0.417000        1.0080           0
      7348 WT1      2218     TIP3     OH2      OT      -0.834000       15.9994           0
      7349 WT1      2218     TIP3     H1       HT       0.417000        1.0080           0
      7350 WT1      2218     TIP3     H2       HT       0.417000        1.0080           0
      7351 WT1      2219     TIP3     OH2      OT      -0.834000       15.9994           0
      7352 WT1      2219     TIP3     H1       HT       0.417000        1.0080           0
      7353 WT1      2219     TIP3     H2       HT       0.417000        1.0080           0
      7354 WT1      2220     TIP3     OH2      OT      -0.834000       15.9994           0
      7355 WT1      2220     TIP3     H1       HT       0.417000        1.0080           0
      7356 WT1      2220     TIP3     H2       HT       0.417000        1.0080           0
      7357 WT1      2221     TIP3     OH2      OT      -0.834000       15.9994           0
      7358 WT1      2221     TIP3     H1       HT       0.417000        1.0080           0
      7359 WT1      2221     TIP3     H2       HT       0.417000        1.0080           0
      7360 WT1      2222     TIP3     OH2      OT      -0.834000       15.9994           0
      7361 WT1      2222     TIP3     H1       HT       0.417000        1.0080           0
      7362 WT1      2222     TIP3     H2       HT       0.417000        1.0080           0
      7363 WT1      2223     TIP3     OH2      OT      -0.834000       15.9994           0
      7364 WT1      2223     TIP3     H1       HT       0.417000        1.0080           0
      7365 WT1      2223     TIP3     H2       HT       0.417000        1.0080           0
      7366 WT1      2224     TIP3     OH2      OT      -0.834000       15.9994           0
      7367 WT1      2224     TIP3     H1       HT       0.417000        1.0080           0
      7368 WT1      2224     TIP3     H2       HT       0.417000        1.0080           0
      7369 WT1      2225     TIP3     OH2      OT      -0.834000       15.9994           0
      7370 WT1      2225     TIP3     H1       HT       0.417000        1.0080           0
      7371 WT1      2225     TIP3     H2       HT       0.417000        1.0080           0
      7372 WT1      2226     TIP3     OH2      OT      -0.834000       15.9994           0
      7373 WT1      2226     TIP3     H1       HT       0.417000        1.0080           0
      7374 WT1      2226     TIP3     H2       HT       0.417000        1.0080           0
      7375 WT1      2227     TIP3     OH2      OT      -0.834000       15.9994           0
      7376 WT1      2227     TIP3     H1       HT       0.417000        1.0080           0
      7377 WT1      2227     TIP3     H2       HT       0.417000        1.0080           0
      7378 WT1      2228     TIP3     OH2      OT      -0.834000       15.9994           0
      7379 WT1      2228     TIP3     H1       HT       0.417000        1.0080           0
      7380 WT1      2228     TIP3     H2       HT       0.417000        1.0080           0
      7381 WT1      2229     TIP3     OH2      OT      -0.834000       15.9994           0
      7382 WT1      2229     TIP3     H1       HT       0.417000        1.0080           0
      7383 WT1      2229     TIP3     H2       HT       0.417000        1.0080           0
      7384 WT1      2230     TIP3     OH2      OT      -0.834000       15.9994           0
      7385 WT1      2230     TIP3     H1       HT       0.417000        1.0080           0
      7386 WT1      2230     TIP3     H2       HT       0.417000        1.0080           0
      7387 WT1      2231     TIP3     OH2      OT      -0.834000       15.9994           0
      7388 WT1      2231     TIP3     H1       HT       0.417000        1.0080           0
      7389 WT1      2231     TIP3     H2       HT       0.417000        1.0080           0
      7390 WT1      2232     TIP3     OH2      OT      -0.834000       15.9994           0
      7391 WT1      2232     TIP3     H1       HT       0.417000        1.0080           0
      7392 WT1      2232     TIP3     H2       HT       0.417000        1.0080           0
      7393 WT1      2233     TIP3     OH2      OT      -0.834000       15.9994           0
      7394 WT1      2233     TIP3     H1       HT       0.417000        1.0080           0
      7395 WT1      2233     TIP3     H2       HT       0.417000        1.0080           0
      7396 WT1      2234     TIP3     OH2      OT      -0.834000       15.9994           0
      7397 WT1      2234     TIP3     H1       HT       0.417000        1.0080           0
      7398 WT1      2234     TIP3     H2       HT       0.417000        1.0080           0
      7399 WT1      2235     TIP3     OH2      OT      -0.834000       15.9994           0
      7400 WT1      2235     TIP3     H1       HT       0.417000        1.0080           0
      7401 WT1      2235     TIP3     H2       HT       0.417000        1.0080           0
      7402 WT1      2236     TIP3     OH2      OT      -0.834000       15.9994           0
      7403 WT1      2236     TIP3     H1       HT       0.417000        1.0080           0
      7404 WT1      2236     TIP3     H2       HT       0.417000        1.0080           0
      7405 WT1      2237     TIP3     OH2      OT      -0.834000       15.9994           0
      7406 WT1      2237     TIP3     H1       HT       0.417000        1.0080           0
      7407 WT1      2237     TIP3     H2       HT       0.417000        1.0080           0
      7408 WT1      2238     TIP3     OH2      OT      -0.834000       15.9994           0
      7409 WT1      2238     TIP3     H1       HT       0.417000        1.0080           0
      7410 WT1      2238     TIP3     H2       HT       0.417000        1.0080           0
      7411 WT1      2239     TIP3     OH2      OT      -0.834000       15.9994           0
      7412 WT1      2239     TIP3     H1       HT       0.417000        1.0080           0
      7413 WT1      2239     TIP3     H2       HT       0.417000        1.0080           0
      7414 WT1      2240     TIP3     OH2      OT      -0.834000       15.9994           0
      7415 WT1      2240     TIP3     H1       HT       0.417000        1.0080           0
      7416 WT1      2240     TIP3     H2       HT       0.417000        1.0080           0
      7417 WT1      2241     TIP3     OH2      OT      -0.834000       15.9994           0
      7418 WT1      2241     TIP3     H1       HT       0.417000        1.0080           0
      7419 WT1      2241     TIP3     H2       HT       0.417000        1.0080           0
      7420 WT1      2242     TIP3     OH2      OT      -0.834000       15.9994           0
      7421 WT1      2242     TIP3     H1       HT       0.417000        1.0080           0
      7422 WT1      2242     TIP3     H2       HT       0.417000        1.0080           0
      7423 WT1      2243     TIP3     OH2      OT      -0.834000       15.9994           0
      7424 WT1      2243     TIP3     H1       HT       0.417000        1.0080           0
      7425 WT1      2243     TIP3     H2       HT       0.417000        1.0080           0
      7426 WT1      2244     TIP3     OH2      OT      -0.834000       15.9994           0
      7427 WT1      2244     TIP3     H1       HT       0.417000        1.0080           0
      7428 WT1      2244     TIP3     H2       HT       0.417000        1.0080           0
      7429 WT1      2245     TIP3     OH2      OT      -0.834000       15.9994           0
      7430 WT1      2245     TIP3     H1       HT       0.417000        1.0080           0
      7431 WT1      2245     TIP3     H2       HT       0.417000        1.0080           0
      7432 WT1      2246     TIP3     OH2      OT      -0.834000       15.9994           0
      7433 WT1      2246     TIP3     H1       HT       0.417000        1.0080           0
      7434 WT1      2246     TIP3     H2       HT       0.417000        1.0080           0
      7435 WT1      2247     TIP3     OH2      OT      -0.834000       15.9994           0
      7436 WT1      2247     TIP3     H1       HT       0.417000        1.0080           0
      7437 WT1      2247     TIP3     H2       HT       0.417000        1.0080           0
      7438 WT1      2248     TIP3     OH2      OT      -0.834000       15.9994           0
      7439 WT1      2248     TIP3     H1       HT       0.417000        1.0080           0
      7440 WT1      2248     TIP3     H2       HT       0.417000        1.0080           0
      7441 WT1      2249     TIP3     OH2      OT      -0.834000       15.9994           0
      7442 WT1      2249     TIP3     H1       HT       0.417000        1.0080           0
      7443 WT1      2249     TIP3     H2       HT       0.417000        1.0080           0
      7444 WT1      2250     TIP3     OH2      OT      -0.834000       15.9994           0
      7445 WT1      2250     TIP3     H1       HT       0.417000        1.0080           0
      7446 WT1      2250     TIP3     H2       HT       0.417000        1.0080           0
      7447 WT1      2251     TIP3     OH2      OT      -0.834000       15.9994           0
      7448 WT1      2251     TIP3     H1       HT       0.417000        1.0080           0
      7449 WT1      2251     TIP3     H2       HT       0.417000        1.0080           0
      7450 WT1      2252     TIP3     OH2      OT      -0.834000       15.9994           0
      7451 WT1      2252     TIP3     H1       HT       0.417000        1.0080           0
      7452 WT1      2252     TIP3     H2       HT       0.417000        1.0080           0
      7453 WT1      2253     TIP3     OH2      OT      -0.834000       15.9994           0
      7454 WT1      2253     TIP3     H1       HT       0.417000        1.0080           0
      7455 WT1      2253     TIP3     H2       HT       0.417000        1.0080           0
      7456 WT1      2254     TIP3     OH2      OT      -0.834000       15.9994           0
      7457 WT1      2254     TIP3     H1       HT       0.417000        1.0080           0
      7458 WT1      2254     TIP3     H2       HT       0.417000        1.0080           0
      7459 WT1      2255     TIP3     OH2      OT      -0.834000       15.9994           0
      7460 WT1      2255     TIP3     H1       HT       0.417000        1.0080           0
      7461 WT1      2255     TIP3     H2       HT       0.417000        1.0080           0
      7462 WT1      2256     TIP3     OH2      OT      -0.834000       15.9994           0
      7463 WT1      2256     TIP3     H1       HT       0.417000        1.0080           0
      7464 WT1      2256     TIP3     H2       HT       0.417000        1.0080           0
      7465 WT1      2257     TIP3     OH2      OT      -0.834000       15.9994           0
      7466 WT1      2257     TIP3     H1       HT       0.417000        1.0080           0
      7467 WT1      2257     TIP3     H2       HT       0.417000        1.0080           0
      7468 WT1      2258     TIP3     OH2      OT      -0.834000       15.9994           0
      7469 WT1      2258     TIP3     H1       HT       0.417000        1.0080           0
      7470 WT1      2258     TIP3     H2       HT       0.417000        1.0080           0
      7471 WT1      2259     TIP3     OH2      OT      -0.834000       15.9994           0
      7472 WT1      2259     TIP3     H1       HT       0.417000        1.0080           0
      7473 WT1      2259     TIP3     H2       HT       0.417000        1.0080           0
      7474 WT1      2260     TIP3     OH2      OT      -0.834000       15.9994           0
      7475 WT1      2260     TIP3     H1       HT       0.417000        1.0080           0
      7476 WT1      2260     TIP3     H2       HT       0.417000        1.0080           0
      7477 WT1      2261     TIP3     OH2      OT      -0.834000       15.9994           0
      7478 WT1      2261     TIP3     H1       HT       0.417000        1.0080           0
      7479 WT1      2261     TIP3     H2       HT       0.417000        1.0080           0
      7480 WT1      2262     TIP3     OH2      OT      -0.834000       15.9994           0
      7481 WT1      2262     TIP3     H1       HT       0.417000        1.0080           0
      7482 WT1      2262     TIP3     H2       HT       0.417000        1.0080           0
      7483 WT1      2263     TIP3     OH2      OT      -0.834000       15.9994           0
      7484 WT1      2263     TIP3     H1       HT       0.417000        1.0080           0
      7485 WT1      2263     TIP3     H2       HT       0.417000        1.0080           0
      7486 WT1      2264     TIP3     OH2      OT      -0.834000       15.9994           0
      7487 WT1      2264     TIP3     H1       HT       0.417000        1.0080           0
      7488 WT1      2264     TIP3     H2       HT       0.417000        1.0080           0
      7489 WT1      2265     TIP3     OH2      OT      -0.834000       15.9994           0
      7490 WT1      2265     TIP3     H1       HT       0.417000        1.0080           0
      7491 WT1      2265     TIP3     H2       HT       0.417000        1.0080           0
      7492 WT1      2266     TIP3     OH2      OT      -0.834000       15.9994           0
      7493 WT1      2266     TIP3     H1       HT       0.417000        1.0080           0
      7494 WT1      2266     TIP3     H2       HT       0.417000        1.0080           0
      7495 WT1      2267     TIP3     OH2      OT      -0.834000       15.9994           0
      7496 WT1      2267     TIP3     H1       HT       0.417000        1.0080           0
      7497 WT1      2267     TIP3     H2       HT       0.417000        1.0080           0
      7498 WT1      2268     TIP3     OH2      OT      -0.834000       15.9994           0
      7499 WT1      2268     TIP3     H1       HT       0.417000        1.0080           0
      7500 WT1      2268     TIP3     H2       HT       0.417000        1.0080           0
      7501 WT1      2269     TIP3     OH2      OT      -0.834000       15.9994           0
      7502 WT1      2269     TIP3     H1       HT       0.417000        1.0080           0
      7503 WT1      2269     TIP3     H2       HT       0.417000        1.0080           0
      7504 WT1      2270     TIP3     OH2      OT      -0.834000       15.9994           0
      7505 WT1      2270     TIP3     H1       HT       0.417000        1.0080           0
      7506 WT1      2270     TIP3     H2       HT       0.417000        1.0080           0
      7507 WT1      2271     TIP3     OH2      OT      -0.834000       15.9994           0
      7508 WT1      2271     TIP3     H1       HT       0.417000        1.0080           0
      7509 WT1      2271     TIP3     H2       HT       0.417000        1.0080           0
      7510 WT1      2272     TIP3     OH2      OT      -0.834000       15.9994           0
      7511 WT1      2272     TIP3     H1       HT       0.417000        1.0080           0
      7512 WT1      2272     TIP3     H2       HT       0.417000        1.0080           0
      7513 WT1      2273     TIP3     OH2      OT      -0.834000       15.9994           0
      7514 WT1      2273     TIP3     H1       HT       0.417000        1.0080           0
      7515 WT1      2273     TIP3     H2       HT       0.417000        1.0080           0
      7516 WT1      2274     TIP3     OH2      OT      -0.834000       15.9994           0
      7517 WT1      2274     TIP3     H1       HT       0.417000        1.0080           0
      7518 WT1      2274     TIP3     H2       HT       0.417000        1.0080           0
      7519 WT1      2275     TIP3     OH2      OT      -0.834000       15.9994           0
      7520 WT1      2275     TIP3     H1       HT       0.417000        1.0080           0
      7521 WT1      2275     TIP3     H2       HT       0.417000        1.0080           0
      7522 WT1      2276     TIP3     OH2      OT      -0.834000       15.9994           0
      7523 WT1      2276     TIP3     H1       HT       0.417000        1.0080           0
      7524 WT1      2276     TIP3     H2       HT       0.417000        1.0080           0
      7525 WT1      2277     TIP3     OH2      OT      -0.834000       15.9994           0
      7526 WT1      2277     TIP3     H1       HT       0.417000        1.0080           0
      7527 WT1      2277     TIP3     H2       HT       0.417000        1.0080           0
      7528 WT1      2278     TIP3     OH2      OT      -0.834000       15.9994           0
      7529 WT1      2278     TIP3     H1       HT       0.417000        1.0080           0
      7530 WT1      2278     TIP3     H2       HT       0.417000        1.0080           0
      7531 WT1      2279     TIP3     OH2      OT      -0.834000       15.9994           0
      7532 WT1      2279     TIP3     H1       HT       0.417000        1.0080           0
      7533 WT1      2279     TIP3     H2       HT       0.417000        1.0080           0
      7534 WT1      2280     TIP3     OH2      OT      -0.834000       15.9994           0
      7535 WT1      2280     TIP3     H1       HT       0.417000        1.0080           0
      7536 WT1      2280     TIP3     H2       HT       0.417000        1.0080           0
      7537 WT1      2281     TIP3     OH2      OT      -0.834000       15.9994           0
      7538 WT1      2281     TIP3     H1       HT       0.417000        1.0080           0
      7539 WT1      2281     TIP3     H2       HT       0.417000        1.0080           0
      7540 WT1      2282     TIP3     OH2      OT      -0.834000       15.9994           0
      7541 WT1      2282     TIP3     H1       HT       0.417000        1.0080           0
      7542 WT1      2282     TIP3     H2       HT       0.417000        1.0080           0
      7543 WT1      2283     TIP3     OH2      OT      -0.834000       15.9994           0
      7544 WT1      2283     TIP3     H1       HT       0.417000        1.0080           0
      7545 WT1      2283     TIP3     H2       HT       0.417000        1.0080           0
      7546 WT1      2284     TIP3     OH2      OT      -0.834000       15.9994           0
      7547 WT1      2284     TIP3     H1       HT       0.417000        1.0080           0
      7548 WT1      2284     TIP3     H2       HT       0.417000        1.0080           0
      7549 WT1      2285     TIP3     OH2      OT      -0.834000       15.9994           0
      7550 WT1      2285     TIP3     H1       HT       0.417000        1.0080           0
      7551 WT1      2285     TIP3     H2       HT       0.417000        1.0080           0
      7552 WT1      2286     TIP3     OH2      OT      -0.834000       15.9994           0
      7553 WT1      2286     TIP3     H1       HT       0.417000        1.0080           0
      7554 WT1      2286     TIP3     H2       HT       0.417000        1.0080           0
      7555 WT1      2287     TIP3     OH2      OT      -0.834000       15.9994           0
      7556 WT1      2287     TIP3     H1       HT       0.417000        1.0080           0
      7557 WT1      2287     TIP3     H2       HT       0.417000        1.0080           0
      7558 WT1      2288     TIP3     OH2      OT      -0.834000       15.9994           0
      7559 WT1      2288     TIP3     H1       HT       0.417000        1.0080           0
      7560 WT1      2288     TIP3     H2       HT       0.417000        1.0080           0
      7561 WT1      2289     TIP3     OH2      OT      -0.834000       15.9994           0
      7562 WT1      2289     TIP3     H1       HT       0.417000        1.0080           0
      7563 WT1      2289     TIP3     H2       HT       0.417000        1.0080           0
      7564 WT1      2290     TIP3     OH2      OT      -0.834000       15.9994           0
      7565 WT1      2290     TIP3     H1       HT       0.417000        1.0080           0
      7566 WT1      2290     TIP3     H2       HT       0.417000        1.0080           0
      7567 WT1      2291     TIP3     OH2      OT      -0.834000       15.9994           0
      7568 WT1      2291     TIP3     H1       HT       0.417000        1.0080           0
      7569 WT1      2291     TIP3     H2       HT       0.417000        1.0080           0
      7570 WT1      2292     TIP3     OH2      OT      -0.834000       15.9994           0
      7571 WT1      2292     TIP3     H1       HT       0.417000        1.0080           0
      7572 WT1      2292     TIP3     H2       HT       0.417000        1.0080           0
      7573 WT1      2293     TIP3     OH2      OT      -0.834000       15.9994           0
      7574 WT1      2293     TIP3     H1       HT       0.417000        1.0080           0
      7575 WT1      2293     TIP3     H2       HT       0.417000        1.0080           0
      7576 WT1      2294     TIP3     OH2      OT      -0.834000       15.9994           0
      7577 WT1      2294     TIP3     H1       HT       0.417000        1.0080           0
      7578 WT1      2294     TIP3     H2       HT       0.417000        1.0080           0
      7579 WT1      2295     TIP3     OH2      OT      -0.834000       15.9994           0
      7580 WT1      2295     TIP3     H1       HT       0.417000        1.0080           0
      7581 WT1      2295     TIP3     H2       HT       0.417000        1.0080           0
      7582 WT1      2296     TIP3     OH2      OT      -0.834000       15.9994           0
      7583 WT1      2296     TIP3     H1       HT       0.417000        1.0080           0
      7584 WT1      2296     TIP3     H2       HT       0.417000        1.0080           0
      7585 WT1      2297     TIP3     OH2      OT      -0.834000       15.9994           0
      7586 WT1      2297     TIP3     H1       HT       0.417000        1.0080           0
      7587 WT1      2297     TIP3     H2       HT       0.417000        1.0080           0
      7588 WT1      2298     TIP3     OH2      OT      -0.834000       15.9994           0
      7589 WT1      2298     TIP3     H1       HT       0.417000        1.0080           0
      7590 WT1      2298     TIP3     H2       HT       0.417000        1.0080           0
      7591 WT1      2299     TIP3     OH2      OT      -0.834000       15.9994           0
      7592 WT1      2299     TIP3     H1       HT       0.417000        1.0080           0
      7593 WT1      2299     TIP3     H2       HT       0.417000        1.0080           0
      7594 WT1      2300     TIP3     OH2      OT      -0.834000       15.9994           0
      7595 WT1      2300     TIP3     H1       HT       0.417000        1.0080           0
      7596 WT1      2300     TIP3     H2       HT       0.417000        1.0080           0
      7597 WT1      2301     TIP3     OH2      OT      -0.834000       15.9994           0
      7598 WT1      2301     TIP3     H1       HT       0.417000        1.0080           0
      7599 WT1      2301     TIP3     H2       HT       0.417000        1.0080           0
      7600 WT1      2302     TIP3     OH2      OT      -0.834000       15.9994           0
      7601 WT1      2302     TIP3     H1       HT       0.417000        1.0080           0
      7602 WT1      2302     TIP3     H2       HT       0.417000        1.0080           0
      7603 WT1      2303     TIP3     OH2      OT      -0.834000       15.9994           0
      7604 WT1      2303     TIP3     H1       HT       0.417000        1.0080           0
      7605 WT1      2303     TIP3     H2       HT       0.417000        1.0080           0
      7606 WT1      2305     TIP3     OH2      OT      -0.834000       15.9994           0
      7607 WT1      2305     TIP3     H1       HT       0.417000        1.0080           0
      7608 WT1      2305     TIP3     H2       HT       0.417000        1.0080           0
      7609 WT1      2306     TIP3     OH2      OT      -0.834000       15.9994           0
      7610 WT1      2306     TIP3     H1       HT       0.417000        1.0080           0
      7611 WT1      2306     TIP3     H2       HT       0.417000        1.0080           0
      7612 WT1      2307     TIP3     OH2      OT      -0.834000       15.9994           0
      7613 WT1      2307     TIP3     H1       HT       0.417000        1.0080           0
      7614 WT1      2307     TIP3     H2       HT       0.417000        1.0080           0
      7615 WT1      2308     TIP3     OH2      OT      -0.834000       15.9994           0
      7616 WT1      2308     TIP3     H1       HT       0.417000        1.0080           0
      7617 WT1      2308     TIP3     H2       HT       0.417000        1.0080           0
      7618 WT1      2309     TIP3     OH2      OT      -0.834000       15.9994           0
      7619 WT1      2309     TIP3     H1       HT       0.417000        1.0080           0
      7620 WT1      2309     TIP3     H2       HT       0.417000        1.0080           0
      7621 WT1      2310     TIP3     OH2      OT      -0.834000       15.9994           0
      7622 WT1      2310     TIP3     H1       HT       0.417000        1.0080           0
      7623 WT1      2310     TIP3     H2       HT       0.417000        1.0080           0
      7624 WT1      2311     TIP3     OH2      OT      -0.834000       15.9994           0
      7625 WT1      2311     TIP3     H1       HT       0.417000        1.0080           0
      7626 WT1      2311     TIP3     H2       HT       0.417000        1.0080           0
      7627 WT1      2313     TIP3     OH2      OT      -0.834000       15.9994           0
      7628 WT1      2313     TIP3     H1       HT       0.417000        1.0080           0
      7629 WT1      2313     TIP3     H2       HT       0.417000        1.0080           0
      7630 WT1      2314     TIP3     OH2      OT      -0.834000       15.9994           0
      7631 WT1      2314     TIP3     H1       HT       0.417000        1.0080           0
      7632 WT1      2314     TIP3     H2       HT       0.417000        1.0080           0
      7633 WT1      2315     TIP3     OH2      OT      -0.834000       15.9994           0
      7634 WT1      2315     TIP3     H1       HT       0.417000        1.0080           0
      7635 WT1      2315     TIP3     H2       HT       0.417000        1.0080           0
      7636 WT1      2316     TIP3     OH2      OT      -0.834000       15.9994           0
      7637 WT1      2316     TIP3     H1       HT       0.417000        1.0080           0
      7638 WT1      2316     TIP3     H2       HT       0.417000        1.0080           0
      7639 WT1      2317     TIP3     OH2      OT      -0.834000       15.9994           0
      7640 WT1      2317     TIP3     H1       HT       0.417000        1.0080           0
      7641 WT1      2317     TIP3     H2       HT       0.417000        1.0080           0
      7642 WT1      2318     TIP3     OH2      OT      -0.834000       15.9994           0
      7643 WT1      2318     TIP3     H1       HT       0.417000        1.0080           0
      7644 WT1      2318     TIP3     H2       HT       0.417000        1.0080           0
      7645 WT1      2319     TIP3     OH2      OT      -0.834000       15.9994           0
      7646 WT1      2319     TIP3     H1       HT       0.417000        1.0080           0
      7647 WT1      2319     TIP3     H2       HT       0.417000        1.0080           0
      7648 WT1      2320     TIP3     OH2      OT      -0.834000       15.9994           0
      7649 WT1      2320     TIP3     H1       HT       0.417000        1.0080           0
      7650 WT1      2320     TIP3     H2       HT       0.417000        1.0080           0
      7651 WT1      2321     TIP3     OH2      OT      -0.834000       15.9994           0
      7652 WT1      2321     TIP3     H1       HT       0.417000        1.0080           0
      7653 WT1      2321     TIP3     H2       HT       0.417000        1.0080           0
      7654 WT1      2322     TIP3     OH2      OT      -0.834000       15.9994           0
      7655 WT1      2322     TIP3     H1       HT       0.417000        1.0080           0
      7656 WT1      2322     TIP3     H2       HT       0.417000        1.0080           0
      7657 WT1      2323     TIP3     OH2      OT      -0.834000       15.9994           0
      7658 WT1      2323     TIP3     H1       HT       0.417000        1.0080           0
      7659 WT1      2323     TIP3     H2       HT       0.417000        1.0080           0
      7660 WT1      2324     TIP3     OH2      OT      -0.834000       15.9994           0
      7661 WT1      2324     TIP3     H1       HT       0.417000        1.0080           0
      7662 WT1      2324     TIP3     H2       HT       0.417000        1.0080           0
      7663 WT1      2325     TIP3     OH2      OT      -0.834000       15.9994           0
      7664 WT1      2325     TIP3     H1       HT       0.417000        1.0080           0
      7665 WT1      2325     TIP3     H2       HT       0.417000        1.0080           0
      7666 WT1      2326     TIP3     OH2      OT      -0.834000       15.9994           0
      7667 WT1      2326     TIP3     H1       HT       0.417000        1.0080           0
      7668 WT1      2326     TIP3     H2       HT       0.417000        1.0080           0
      7669 WT1      2327     TIP3     OH2      OT      -0.834000       15.9994           0
      7670 WT1      2327     TIP3     H1       HT       0.417000        1.0080           0
      7671 WT1      2327     TIP3     H2       HT       0.417000        1.0080           0
      7672 WT1      2328     TIP3     OH2      OT      -0.834000       15.9994           0
      7673 WT1      2328     TIP3     H1       HT       0.417000        1.0080           0
      7674 WT1      2328     TIP3     H2       HT       0.417000        1.0080           0
      7675 WT1      2329     TIP3     OH2      OT      -0.834000       15.9994           0
      7676 WT1      2329     TIP3     H1       HT       0.417000        1.0080           0
      7677 WT1      2329     TIP3     H2       HT       0.417000        1.0080           0
      7678 WT1      2330     TIP3     OH2      OT      -0.834000       15.9994           0
      7679 WT1      2330     TIP3     H1       HT       0.417000        1.0080           0
      7680 WT1      2330     TIP3     H2       HT       0.417000        1.0080           0
      7681 WT1      2331     TIP3     OH2      OT      -0.834000       15.9994           0
      7682 WT1      2331     TIP3     H1       HT       0.417000        1.0080           0
      7683 WT1      2331     TIP3     H2       HT       0.417000        1.0080           0
      7684 WT1      2332     TIP3     OH2      OT      -0.834000       15.9994           0
      7685 WT1      2332     TIP3     H1       HT       0.417000        1.0080           0
      7686 WT1      2332     TIP3     H2       HT       0.417000        1.0080           0
      7687 WT1      2333     TIP3     OH2      OT      -0.834000       15.9994           0
      7688 WT1      2333     TIP3     H1       HT       0.417000        1.0080           0
      7689 WT1      2333     TIP3     H2       HT       0.417000        1.0080           0
      7690 WT1      2334     TIP3     OH2      OT      -0.834000       15.9994           0
      7691 WT1      2334     TIP3     H1       HT       0.417000        1.0080           0
      7692 WT1      2334     TIP3     H2       HT       0.417000        1.0080           0
      7693 WT1      2335     TIP3     OH2      OT      -0.834000       15.9994           0
      7694 WT1      2335     TIP3     H1       HT       0.417000        1.0080           0
      7695 WT1      2335     TIP3     H2       HT       0.417000        1.0080           0
      7696 WT1      2336     TIP3     OH2      OT      -0.834000       15.9994           0
      7697 WT1      2336     TIP3     H1       HT       0.417000        1.0080           0
      7698 WT1      2336     TIP3     H2       HT       0.417000        1.0080           0
      7699 WT1      2337     TIP3     OH2      OT      -0.834000       15.9994           0
      7700 WT1      2337     TIP3     H1       HT       0.417000        1.0080           0
      7701 WT1      2337     TIP3     H2       HT       0.417000        1.0080           0
      7702 WT1      2338     TIP3     OH2      OT      -0.834000       15.9994           0
      7703 WT1      2338     TIP3     H1       HT       0.417000        1.0080           0
      7704 WT1      2338     TIP3     H2       HT       0.417000        1.0080           0
      7705 WT1      2339     TIP3     OH2      OT      -0.834000       15.9994           0
      7706 WT1      2339     TIP3     H1       HT       0.417000        1.0080           0
      7707 WT1      2339     TIP3     H2       HT       0.417000        1.0080           0
      7708 WT1      2340     TIP3     OH2      OT      -0.834000       15.9994           0
      7709 WT1      2340     TIP3     H1       HT       0.417000        1.0080           0
      7710 WT1      2340     TIP3     H2       HT       0.417000        1.0080           0
      7711 WT1      2341     TIP3     OH2      OT      -0.834000       15.9994           0
      7712 WT1      2341     TIP3     H1       HT       0.417000        1.0080           0
      7713 WT1      2341     TIP3     H2       HT       0.417000        1.0080           0
      7714 WT1      2342     TIP3     OH2      OT      -0.834000       15.9994           0
      7715 WT1      2342     TIP3     H1       HT       0.417000        1.0080           0
      7716 WT1      2342     TIP3     H2       HT       0.417000        1.0080           0
      7717 WT1      2343     TIP3     OH2      OT      -0.834000       15.9994           0
      7718 WT1      2343     TIP3     H1       HT       0.417000        1.0080           0
      7719 WT1      2343     TIP3     H2       HT       0.417000        1.0080           0
      7720 WT1      2344     TIP3     OH2      OT      -0.834000       15.9994           0
      7721 WT1      2344     TIP3     H1       HT       0.417000        1.0080           0
      7722 WT1      2344     TIP3     H2       HT       0.417000        1.0080           0
      7723 WT1      2345     TIP3     OH2      OT      -0.834000       15.9994           0
      7724 WT1      2345     TIP3     H1       HT       0.417000        1.0080           0
      7725 WT1      2345     TIP3     H2       HT       0.417000        1.0080           0
      7726 WT1      2346     TIP3     OH2      OT      -0.834000       15.9994           0
      7727 WT1      2346     TIP3     H1       HT       0.417000        1.0080           0
      7728 WT1      2346     TIP3     H2       HT       0.417000        1.0080           0
      7729 WT1      2347     TIP3     OH2      OT      -0.834000       15.9994           0
      7730 WT1      2347     TIP3     H1       HT       0.417000        1.0080           0
      7731 WT1      2347     TIP3     H2       HT       0.417000        1.0080           0
      7732 WT1      2348     TIP3     OH2      OT      -0.834000       15.9994           0
      7733 WT1      2348     TIP3     H1       HT       0.417000        1.0080           0
      7734 WT1      2348     TIP3     H2       HT       0.417000        1.0080           0
      7735 WT1      2349     TIP3     OH2      OT      -0.834000       15.9994           0
      7736 WT1      2349     TIP3     H1       HT       0.417000        1.0080           0
      7737 WT1      2349     TIP3     H2       HT       0.417000        1.0080           0
      7738 WT1      2350     TIP3     OH2      OT      -0.834000       15.9994           0
      7739 WT1      2350     TIP3     H1       HT       0.417000        1.0080           0
      7740 WT1      2350     TIP3     H2       HT       0.417000        1.0080           0
      7741 WT1      2351     TIP3     OH2      OT      -0.834000       15.9994           0
      7742 WT1      2351     TIP3     H1       HT       0.417000        1.0080           0
      7743 WT1      2351     TIP3     H2       HT       0.417000        1.0080           0
      7744 WT1      2352     TIP3     OH2      OT      -0.834000       15.9994           0
      7745 WT1      2352     TIP3     H1       HT       0.417000        1.0080           0
      7746 WT1      2352     TIP3     H2       HT       0.417000        1.0080           0
      7747 WT1      2353     TIP3     OH2      OT      -0.834000       15.9994           0
      7748 WT1      2353     TIP3     H1       HT       0.417000        1.0080           0
      7749 WT1      2353     TIP3     H2       HT       0.417000        1.0080           0
      7750 WT1      2354     TIP3     OH2      OT      -0.834000       15.9994           0
      7751 WT1      2354     TIP3     H1       HT       0.417000        1.0080           0
      7752 WT1      2354     TIP3     H2       HT       0.417000        1.0080           0
      7753 WT1      2355     TIP3     OH2      OT      -0.834000       15.9994           0
      7754 WT1      2355     TIP3     H1       HT       0.417000        1.0080           0
      7755 WT1      2355     TIP3     H2       HT       0.417000        1.0080           0
      7756 WT1      2356     TIP3     OH2      OT      -0.834000       15.9994           0
      7757 WT1      2356     TIP3     H1       HT       0.417000        1.0080           0
      7758 WT1      2356     TIP3     H2       HT       0.417000        1.0080           0
      7759 WT1      2357     TIP3     OH2      OT      -0.834000       15.9994           0
      7760 WT1      2357     TIP3     H1       HT       0.417000        1.0080           0
      7761 WT1      2357     TIP3     H2       HT       0.417000        1.0080           0
      7762 WT1      2358     TIP3     OH2      OT      -0.834000       15.9994           0
      7763 WT1      2358     TIP3     H1       HT       0.417000        1.0080           0
      7764 WT1      2358     TIP3     H2       HT       0.417000        1.0080           0
      7765 WT1      2359     TIP3     OH2      OT      -0.834000       15.9994           0
      7766 WT1      2359     TIP3     H1       HT       0.417000        1.0080           0
      7767 WT1      2359     TIP3     H2       HT       0.417000        1.0080           0
      7768 WT1      2360     TIP3     OH2      OT      -0.834000       15.9994           0
      7769 WT1      2360     TIP3     H1       HT       0.417000        1.0080           0
      7770 WT1      2360     TIP3     H2       HT       0.417000        1.0080           0
      7771 WT1      2361     TIP3     OH2      OT      -0.834000       15.9994           0
      7772 WT1      2361     TIP3     H1       HT       0.417000        1.0080           0
      7773 WT1      2361     TIP3     H2       HT       0.417000        1.0080           0
      7774 WT1      2362     TIP3     OH2      OT      -0.834000       15.9994           0
      7775 WT1      2362     TIP3     H1       HT       0.417000        1.0080           0
      7776 WT1      2362     TIP3     H2       HT       0.417000        1.0080           0
      7777 WT1      2363     TIP3     OH2      OT      -0.834000       15.9994           0
      7778 WT1      2363     TIP3     H1       HT       0.417000        1.0080           0
      7779 WT1      2363     TIP3     H2       HT       0.417000        1.0080           0
      7780 WT1      2364     TIP3     OH2      OT      -0.834000       15.9994           0
      7781 WT1      2364     TIP3     H1       HT       0.417000        1.0080           0
      7782 WT1      2364     TIP3     H2       HT       0.417000        1.0080           0
      7783 WT1      2365     TIP3     OH2      OT      -0.834000       15.9994           0
      7784 WT1      2365     TIP3     H1       HT       0.417000        1.0080           0
      7785 WT1      2365     TIP3     H2       HT       0.417000        1.0080           0
      7786 WT1      2366     TIP3     OH2      OT      -0.834000       15.9994           0
      7787 WT1      2366     TIP3     H1       HT       0.417000        1.0080           0
      7788 WT1      2366     TIP3     H2       HT       0.417000        1.0080           0
      7789 WT1      2367     TIP3     OH2      OT      -0.834000       15.9994           0
      7790 WT1      2367     TIP3     H1       HT       0.417000        1.0080           0
      7791 WT1      2367     TIP3     H2       HT       0.417000        1.0080           0
      7792 WT1      2368     TIP3     OH2      OT      -0.834000       15.9994           0
      7793 WT1      2368     TIP3     H1       HT       0.417000        1.0080           0
      7794 WT1      2368     TIP3     H2       HT       0.417000        1.0080           0
      7795 WT1      2369     TIP3     OH2      OT      -0.834000       15.9994           0
      7796 WT1      2369     TIP3     H1       HT       0.417000        1.0080           0
      7797 WT1      2369     TIP3     H2       HT       0.417000        1.0080           0
      7798 WT1      2370     TIP3     OH2      OT      -0.834000       15.9994           0
      7799 WT1      2370     TIP3     H1       HT       0.417000        1.0080           0
      7800 WT1      2370     TIP3     H2       HT       0.417000        1.0080           0
      7801 WT1      2371     TIP3     OH2      OT      -0.834000       15.9994           0
      7802 WT1      2371     TIP3     H1       HT       0.417000        1.0080           0
      7803 WT1      2371     TIP3     H2       HT       0.417000        1.0080           0
      7804 WT1      2372     TIP3     OH2      OT      -0.834000       15.9994           0
      7805 WT1      2372     TIP3     H1       HT       0.417000        1.0080           0
      7806 WT1      2372     TIP3     H2       HT       0.417000        1.0080           0
      7807 WT1      2373     TIP3     OH2      OT      -0.834000       15.9994           0
      7808 WT1      2373     TIP3     H1       HT       0.417000        1.0080           0
      7809 WT1      2373     TIP3     H2       HT       0.417000        1.0080           0
      7810 WT1      2374     TIP3     OH2      OT      -0.834000       15.9994           0
      7811 WT1      2374     TIP3     H1       HT       0.417000        1.0080           0
      7812 WT1      2374     TIP3     H2       HT       0.417000        1.0080           0
      7813 WT1      2375     TIP3     OH2      OT      -0.834000       15.9994           0
      7814 WT1      2375     TIP3     H1       HT       0.417000        1.0080           0
      7815 WT1      2375     TIP3     H2       HT       0.417000        1.0080           0
      7816 WT1      2376     TIP3     OH2      OT      -0.834000       15.9994           0
      7817 WT1      2376     TIP3     H1       HT       0.417000        1.0080           0
      7818 WT1      2376     TIP3     H2       HT       0.417000        1.0080           0
      7819 WT1      2377     TIP3     OH2      OT      -0.834000       15.9994           0
      7820 WT1      2377     TIP3     H1       HT       0.417000        1.0080           0
      7821 WT1      2377     TIP3     H2       HT       0.417000        1.0080           0
      7822 WT1      2379     TIP3     OH2      OT      -0.834000       15.9994           0
      7823 WT1      2379     TIP3     H1       HT       0.417000        1.0080           0
      7824 WT1      2379     TIP3     H2       HT       0.417000        1.0080           0
      7825 WT1      2380     TIP3     OH2      OT      -0.834000       15.9994           0
      7826 WT1      2380     TIP3     H1       HT       0.417000        1.0080           0
      7827 WT1      2380     TIP3     H2       HT       0.417000        1.0080           0
      7828 WT1      2381     TIP3     OH2      OT      -0.834000       15.9994           0
      7829 WT1      2381     TIP3     H1       HT       0.417000        1.0080           0
      7830 WT1      2381     TIP3     H2       HT       0.417000        1.0080           0
      7831 WT1      2382     TIP3     OH2      OT      -0.834000       15.9994           0
      7832 WT1      2382     TIP3     H1       HT       0.417000        1.0080           0
      7833 WT1      2382     TIP3     H2       HT       0.417000        1.0080           0
      7834 WT1      2383     TIP3     OH2      OT      -0.834000       15.9994           0
      7835 WT1      2383     TIP3     H1       HT       0.417000        1.0080           0
      7836 WT1      2383     TIP3     H2       HT       0.417000        1.0080           0
      7837 WT1      2384     TIP3     OH2      OT      -0.834000       15.9994           0
      7838 WT1      2384     TIP3     H1       HT       0.417000        1.0080           0
      7839 WT1      2384     TIP3     H2       HT       0.417000        1.0080           0
      7840 WT1      2385     TIP3     OH2      OT      -0.834000       15.9994           0
      7841 WT1      2385     TIP3     H1       HT       0.417000        1.0080           0
      7842 WT1      2385     TIP3     H2       HT       0.417000        1.0080           0
      7843 WT1      2386     TIP3     OH2      OT      -0.834000       15.9994           0
      7844 WT1      2386     TIP3     H1       HT       0.417000        1.0080           0
      7845 WT1      2386     TIP3     H2       HT       0.417000        1.0080           0
      7846 WT1      2387     TIP3     OH2      OT      -0.834000       15.9994           0
      7847 WT1      2387     TIP3     H1       HT       0.417000        1.0080           0
      7848 WT1      2387     TIP3     H2       HT       0.417000        1.0080           0
      7849 WT1      2388     TIP3     OH2      OT      -0.834000       15.9994           0
      7850 WT1      2388     TIP3     H1       HT       0.417000        1.0080           0
      7851 WT1      2388     TIP3     H2       HT       0.417000        1.0080           0
      7852 WT1      2389     TIP3     OH2      OT      -0.834000       15.9994           0
      7853 WT1      2389     TIP3     H1       HT       0.417000        1.0080           0
      7854 WT1      2389     TIP3     H2       HT       0.417000        1.0080           0
      7855 WT1      2390     TIP3     OH2      OT      -0.834000       15.9994           0
      7856 WT1      2390     TIP3     H1       HT       0.417000        1.0080           0
      7857 WT1      2390     TIP3     H2       HT       0.417000        1.0080           0
      7858 WT1      2391     TIP3     OH2      OT      -0.834000       15.9994           0
      7859 WT1      2391     TIP3     H1       HT       0.417000        1.0080           0
      7860 WT1      2391     TIP3     H2       HT       0.417000        1.0080           0
      7861 WT1      2392     TIP3     OH2      OT      -0.834000       15.9994           0
      7862 WT1      2392     TIP3     H1       HT       0.417000        1.0080           0
      7863 WT1      2392     TIP3     H2       HT       0.417000        1.0080           0
      7864 WT1      2393     TIP3     OH2      OT      -0.834000       15.9994           0
      7865 WT1      2393     TIP3     H1       HT       0.417000        1.0080           0
      7866 WT1      2393     TIP3     H2       HT       0.417000        1.0080           0
      7867 WT1      2394     TIP3     OH2      OT      -0.834000       15.9994           0
      7868 WT1      2394     TIP3     H1       HT       0.417000        1.0080           0
      7869 WT1      2394     TIP3     H2       HT       0.417000        1.0080           0
      7870 WT1      2395     TIP3     OH2      OT      -0.834000       15.9994           0
      7871 WT1      2395     TIP3     H1       HT       0.417000        1.0080           0
      7872 WT1      2395     TIP3     H2       HT       0.417000        1.0080           0
      7873 WT1      2396     TIP3     OH2      OT      -0.834000       15.9994           0
      7874 WT1      2396     TIP3     H1       HT       0.417000        1.0080           0
      7875 WT1      2396     TIP3     H2       HT       0.417000        1.0080           0
      7876 WT1      2397     TIP3     OH2      OT      -0.834000       15.9994           0
      7877 WT1      2397     TIP3     H1       HT       0.417000        1.0080           0
      7878 WT1      2397     TIP3     H2       HT       0.417000        1.0080           0
      7879 WT1      2398     TIP3     OH2      OT      -0.834000       15.9994           0
      7880 WT1      2398     TIP3     H1       HT       0.417000        1.0080           0
      7881 WT1      2398     TIP3     H2       HT       0.417000        1.0080           0
      7882 WT1      2399     TIP3     OH2      OT      -0.834000       15.9994           0
      7883 WT1      2399     TIP3     H1       HT       0.417000        1.0080           0
      7884 WT1      2399     TIP3     H2       HT       0.417000        1.0080           0
      7885 WT1      2400     TIP3     OH2      OT      -0.834000       15.9994           0
      7886 WT1      2400     TIP3     H1       HT       0.417000        1.0080           0
      7887 WT1      2400     TIP3     H2       HT       0.417000        1.0080           0
      7888 WT1      2401     TIP3     OH2      OT      -0.834000       15.9994           0
      7889 WT1      2401     TIP3     H1       HT       0.417000        1.0080           0
      7890 WT1      2401     TIP3     H2       HT       0.417000        1.0080           0
      7891 WT1      2402     TIP3     OH2      OT      -0.834000       15.9994           0
      7892 WT1      2402     TIP3     H1       HT       0.417000        1.0080           0
      7893 WT1      2402     TIP3     H2       HT       0.417000        1.0080           0
      7894 WT1      2403     TIP3     OH2      OT      -0.834000       15.9994           0
      7895 WT1      2403     TIP3     H1       HT       0.417000        1.0080           0
      7896 WT1      2403     TIP3     H2       HT       0.417000        1.0080           0
      7897 WT1      2404     TIP3     OH2      OT      -0.834000       15.9994           0
      7898 WT1      2404     TIP3     H1       HT       0.417000        1.0080           0
      7899 WT1      2404     TIP3     H2       HT       0.417000        1.0080           0
      7900 WT1      2405     TIP3     OH2      OT      -0.834000       15.9994           0
      7901 WT1      2405     TIP3     H1       HT       0.417000        1.0080           0
      7902 WT1      2405     TIP3     H2       HT       0.417000        1.0080           0
      7903 WT1      2406     TIP3     OH2      OT      -0.834000       15.9994           0
      7904 WT1      2406     TIP3     H1       HT       0.417000        1.0080           0
      7905 WT1      2406     TIP3     H2       HT       0.417000        1.0080           0
      7906 WT1      2407     TIP3     OH2      OT      -0.834000       15.9994           0
      7907 WT1      2407     TIP3     H1       HT       0.417000        1.0080           0
      7908 WT1      2407     TIP3     H2       HT       0.417000        1.0080           0
      7909 WT1      2408     TIP3     OH2      OT      -0.834000       15.9994           0
      7910 WT1      2408     TIP3     H1       HT       0.417000        1.0080           0
      7911 WT1      2408     TIP3     H2       HT       0.417000        1.0080           0
      7912 WT1      2409     TIP3     OH2      OT      -0.834000       15.9994           0
      7913 WT1      2409     TIP3     H1       HT       0.417000        1.0080           0
      7914 WT1      2409     TIP3     H2       HT       0.417000        1.0080           0
      7915 WT1      2410     TIP3     OH2      OT      -0.834000       15.9994           0
      7916 WT1      2410     TIP3     H1       HT       0.417000        1.0080           0
      7917 WT1      2410     TIP3     H2       HT       0.417000        1.0080           0
      7918 WT1      2411     TIP3     OH2      OT      -0.834000       15.9994           0
      7919 WT1      2411     TIP3     H1       HT       0.417000        1.0080           0
      7920 WT1      2411     TIP3     H2       HT       0.417000        1.0080           0
      7921 WT1      2412     TIP3     OH2      OT      -0.834000       15.9994           0
      7922 WT1      2412     TIP3     H1       HT       0.417000        1.0080           0
      7923 WT1      2412     TIP3     H2       HT       0.417000        1.0080           0
      7924 WT1      2413     TIP3     OH2      OT      -0.834000       15.9994           0
      7925 WT1      2413     TIP3     H1       HT       0.417000        1.0080           0
      7926 WT1      2413     TIP3     H2       HT       0.417000        1.0080           0
      7927 WT1      2414     TIP3     OH2      OT      -0.834000       15.9994           0
      7928 WT1      2414     TIP3     H1       HT       0.417000        1.0080           0
      7929 WT1      2414     TIP3     H2       HT       0.417000        1.0080           0
      7930 WT1      2415     TIP3     OH2      OT      -0.834000       15.9994           0
      7931 WT1      2415     TIP3     H1       HT       0.417000        1.0080           0
      7932 WT1      2415     TIP3     H2       HT       0.417000        1.0080           0
      7933 WT1      2416     TIP3     OH2      OT      -0.834000       15.9994           0
      7934 WT1      2416     TIP3     H1       HT       0.417000        1.0080           0
      7935 WT1      2416     TIP3     H2       HT       0.417000        1.0080           0
      7936 WT1      2417     TIP3     OH2      OT      -0.834000       15.9994           0
      7937 WT1      2417     TIP3     H1       HT       0.417000        1.0080           0
      7938 WT1      2417     TIP3     H2       HT       0.417000        1.0080           0
      7939 WT1      2418     TIP3     OH2      OT      -0.834000       15.9994           0
      7940 WT1      2418     TIP3     H1       HT       0.417000        1.0080           0
      7941 WT1      2418     TIP3     H2       HT       0.417000        1.0080           0
      7942 WT1      2419     TIP3     OH2      OT      -0.834000       15.9994           0
      7943 WT1      2419     TIP3     H1       HT       0.417000        1.0080           0
      7944 WT1      2419     TIP3     H2       HT       0.417000        1.0080           0
      7945 WT1      2420     TIP3     OH2      OT      -0.834000       15.9994           0
      7946 WT1      2420     TIP3     H1       HT       0.417000        1.0080           0
      7947 WT1      2420     TIP3     H2       HT       0.417000        1.0080           0
      7948 WT1      2421     TIP3     OH2      OT      -0.834000       15.9994           0
      7949 WT1      2421     TIP3     H1       HT       0.417000        1.0080           0
      7950 WT1      2421     TIP3     H2       HT       0.417000        1.0080           0
      7951 WT1      2422     TIP3     OH2      OT      -0.834000       15.9994           0
      7952 WT1      2422     TIP3     H1       HT       0.417000        1.0080           0
      7953 WT1      2422     TIP3     H2       HT       0.417000        1.0080           0
      7954 WT1      2423     TIP3     OH2      OT      -0.834000       15.9994           0
      7955 WT1      2423     TIP3     H1       HT       0.417000        1.0080           0
      7956 WT1      2423     TIP3     H2       HT       0.417000        1.0080           0
      7957 WT1      2424     TIP3     OH2      OT      -0.834000       15.9994           0
      7958 WT1      2424     TIP3     H1       HT       0.417000        1.0080           0
      7959 WT1      2424     TIP3     H2       HT       0.417000        1.0080           0
      7960 WT1      2425     TIP3     OH2      OT      -0.834000       15.9994           0
      7961 WT1      2425     TIP3     H1       HT       0.417000        1.0080           0
      7962 WT1      2425     TIP3     H2       HT       0.417000        1.0080           0
      7963 WT1      2426     TIP3     OH2      OT      -0.834000       15.9994           0
      7964 WT1      2426     TIP3     H1       HT       0.417000        1.0080           0
      7965 WT1      2426     TIP3     H2       HT       0.417000        1.0080           0
      7966 WT1      2427     TIP3     OH2      OT      -0.834000       15.9994           0
      7967 WT1      2427     TIP3     H1       HT       0.417000        1.0080           0
      7968 WT1      2427     TIP3     H2       HT       0.417000        1.0080           0
      7969 WT1      2428     TIP3     OH2      OT      -0.834000       15.9994           0
      7970 WT1      2428     TIP3     H1       HT       0.417000        1.0080           0
      7971 WT1      2428     TIP3     H2       HT       0.417000        1.0080           0
      7972 WT1      2429     TIP3     OH2      OT      -0.834000       15.9994           0
      7973 WT1      2429     TIP3     H1       HT       0.417000        1.0080           0
      7974 WT1      2429     TIP3     H2       HT       0.417000        1.0080           0
      7975 WT1      2430     TIP3     OH2      OT      -0.834000       15.9994           0
      7976 WT1      2430     TIP3     H1       HT       0.417000        1.0080           0
      7977 WT1      2430     TIP3     H2       HT       0.417000        1.0080           0
      7978 WT1      2431     TIP3     OH2      OT      -0.834000       15.9994           0
      7979 WT1      2431     TIP3     H1       HT       0.417000        1.0080           0
      7980 WT1      2431     TIP3     H2       HT       0.417000        1.0080           0
      7981 WT1      2432     TIP3     OH2      OT      -0.834000       15.9994           0
      7982 WT1      2432     TIP3     H1       HT       0.417000        1.0080           0
      7983 WT1      2432     TIP3     H2       HT       0.417000        1.0080           0
      7984 WT1      2433     TIP3     OH2      OT      -0.834000       15.9994           0
      7985 WT1      2433     TIP3     H1       HT       0.417000        1.0080           0
      7986 WT1      2433     TIP3     H2       HT       0.417000        1.0080           0
      7987 WT1      2434     TIP3     OH2      OT      -0.834000       15.9994           0
      7988 WT1      2434     TIP3     H1       HT       0.417000        1.0080           0
      7989 WT1      2434     TIP3     H2       HT       0.417000        1.0080           0
      7990 WT1      2435     TIP3     OH2      OT      -0.834000       15.9994           0
      7991 WT1      2435     TIP3     H1       HT       0.417000        1.0080           0
      7992 WT1      2435     TIP3     H2       HT       0.417000        1.0080           0
      7993 WT1      2436     TIP3     OH2      OT      -0.834000       15.9994           0
      7994 WT1      2436     TIP3     H1       HT       0.417000        1.0080           0
      7995 WT1      2436     TIP3     H2       HT       0.417000        1.0080           0
      7996 WT1      2437     TIP3     OH2      OT      -0.834000       15.9994           0
      7997 WT1      2437     TIP3     H1       HT       0.417000        1.0080           0
      7998 WT1      2437     TIP3     H2       HT       0.417000        1.0080           0
      7999 WT1      2438     TIP3     OH2      OT      -0.834000       15.9994           0
      8000 WT1      2438     TIP3     H1       HT       0.417000        1.0080           0
      8001 WT1      2438     TIP3     H2       HT       0.417000        1.0080           0
      8002 WT1      2439     TIP3     OH2      OT      -0.834000       15.9994           0
      8003 WT1      2439     TIP3     H1       HT       0.417000        1.0080           0
      8004 WT1      2439     TIP3     H2       HT       0.417000        1.0080           0
      8005 WT1      2440     TIP3     OH2      OT      -0.834000       15.9994           0
      8006 WT1      2440     TIP3     H1       HT       0.417000        1.0080           0
      8007 WT1      2440     TIP3     H2       HT       0.417000        1.0080           0
      8008 WT1      2441     TIP3     OH2      OT      -0.834000       15.9994           0
      8009 WT1      2441     TIP3     H1       HT       0.417000        1.0080           0
      8010 WT1      2441     TIP3     H2       HT       0.417000        1.0080           0
      8011 WT1      2442     TIP3     OH2      OT      -0.834000       15.9994           0
      8012 WT1      2442     TIP3     H1       HT       0.417000        1.0080           0
      8013 WT1      2442     TIP3     H2       HT       0.417000        1.0080           0
      8014 WT1      2443     TIP3     OH2      OT      -0.834000       15.9994           0
      8015 WT1      2443     TIP3     H1       HT       0.417000        1.0080           0
      8016 WT1      2443     TIP3     H2       HT       0.417000        1.0080           0
      8017 WT1      2444     TIP3     OH2      OT      -0.834000       15.9994           0
      8018 WT1      2444     TIP3     H1       HT       0.417000        1.0080           0
      8019 WT1      2444     TIP3     H2       HT       0.417000        1.0080           0
      8020 WT1      2445     TIP3     OH2      OT      -0.834000       15.9994           0
      8021 WT1      2445     TIP3     H1       HT       0.417000        1.0080           0
      8022 WT1      2445     TIP3     H2       HT       0.417000        1.0080           0
      8023 WT1      2446     TIP3     OH2      OT      -0.834000       15.9994           0
      8024 WT1      2446     TIP3     H1       HT       0.417000        1.0080           0
      8025 WT1      2446     TIP3     H2       HT       0.417000        1.0080           0
      8026 WT1      2447     TIP3     OH2      OT      -0.834000       15.9994           0
      8027 WT1      2447     TIP3     H1       HT       0.417000        1.0080           0
      8028 WT1      2447     TIP3     H2       HT       0.417000        1.0080           0
      8029 WT1      2448     TIP3     OH2      OT      -0.834000       15.9994           0
      8030 WT1      2448     TIP3     H1       HT       0.417000        1.0080           0
      8031 WT1      2448     TIP3     H2       HT       0.417000        1.0080           0
      8032 WT1      2449     TIP3     OH2      OT      -0.834000       15.9994           0
      8033 WT1      2449     TIP3     H1       HT       0.417000        1.0080           0
      8034 WT1      2449     TIP3     H2       HT       0.417000        1.0080           0
      8035 WT1      2450     TIP3     OH2      OT      -0.834000       15.9994           0
      8036 WT1      2450     TIP3     H1       HT       0.417000        1.0080           0
      8037 WT1      2450     TIP3     H2       HT       0.417000        1.0080           0
      8038 WT1      2451     TIP3     OH2      OT      -0.834000       15.9994           0
      8039 WT1      2451     TIP3     H1       HT       0.417000        1.0080           0
      8040 WT1      2451     TIP3     H2       HT       0.417000        1.0080           0
      8041 WT1      2452     TIP3     OH2      OT      -0.834000       15.9994           0
      8042 WT1      2452     TIP3     H1       HT       0.417000        1.0080           0
      8043 WT1      2452     TIP3     H2       HT       0.417000        1.0080           0
      8044 WT1      2453     TIP3     OH2      OT      -0.834000       15.9994           0
      8045 WT1      2453     TIP3     H1       HT       0.417000        1.0080           0
      8046 WT1      2453     TIP3     H2       HT       0.417000        1.0080           0
      8047 WT1      2455     TIP3     OH2      OT      -0.834000       15.9994           0
      8048 WT1      2455     TIP3     H1       HT       0.417000        1.0080           0
      8049 WT1      2455     TIP3     H2       HT       0.417000        1.0080           0
      8050 WT1      2456     TIP3     OH2      OT      -0.834000       15.9994           0
      8051 WT1      2456     TIP3     H1       HT       0.417000        1.0080           0
      8052 WT1      2456     TIP3     H2       HT       0.417000        1.0080           0
      8053 WT1      2457     TIP3     OH2      OT      -0.834000       15.9994           0
      8054 WT1      2457     TIP3     H1       HT       0.417000        1.0080           0
      8055 WT1      2457     TIP3     H2       HT       0.417000        1.0080           0
      8056 WT1      2458     TIP3     OH2      OT      -0.834000       15.9994           0
      8057 WT1      2458     TIP3     H1       HT       0.417000        1.0080           0
      8058 WT1      2458     TIP3     H2       HT       0.417000        1.0080           0
      8059 WT1      2459     TIP3     OH2      OT      -0.834000       15.9994           0
      8060 WT1      2459     TIP3     H1       HT       0.417000        1.0080           0
      8061 WT1      2459     TIP3     H2       HT       0.417000        1.0080           0
      8062 WT1      2460     TIP3     OH2      OT      -0.834000       15.9994           0
      8063 WT1      2460     TIP3     H1       HT       0.417000        1.0080           0
      8064 WT1      2460     TIP3     H2       HT       0.417000        1.0080           0
      8065 WT1      2461     TIP3     OH2      OT      -0.834000       15.9994           0
      8066 WT1      2461     TIP3     H1       HT       0.417000        1.0080           0
      8067 WT1      2461     TIP3     H2       HT       0.417000        1.0080           0
      8068 WT1      2462     TIP3     OH2      OT      -0.834000       15.9994           0
      8069 WT1      2462     TIP3     H1       HT       0.417000        1.0080           0
      8070 WT1      2462     TIP3     H2       HT       0.417000        1.0080           0
      8071 WT1      2463     TIP3     OH2      OT      -0.834000       15.9994           0
      8072 WT1      2463     TIP3     H1       HT       0.417000        1.0080           0
      8073 WT1      2463     TIP3     H2       HT       0.417000        1.0080           0
      8074 WT1      2464     TIP3     OH2      OT      -0.834000       15.9994           0
      8075 WT1      2464     TIP3     H1       HT       0.417000        1.0080           0
      8076 WT1      2464     TIP3     H2       HT       0.417000        1.0080           0
      8077 WT1      2465     TIP3     OH2      OT      -0.834000       15.9994           0
      8078 WT1      2465     TIP3     H1       HT       0.417000        1.0080           0
      8079 WT1      2465     TIP3     H2       HT       0.417000        1.0080           0
      8080 WT1      2466     TIP3     OH2      OT      -0.834000       15.9994           0
      8081 WT1      2466     TIP3     H1       HT       0.417000        1.0080           0
      8082 WT1      2466     TIP3     H2       HT       0.417000        1.0080           0
      8083 WT1      2467     TIP3     OH2      OT      -0.834000       15.9994           0
      8084 WT1      2467     TIP3     H1       HT       0.417000        1.0080           0
      8085 WT1      2467     TIP3     H2       HT       0.417000        1.0080           0
      8086 WT1      2468     TIP3     OH2      OT      -0.834000       15.9994           0
      8087 WT1      2468     TIP3     H1       HT       0.417000        1.0080           0
      8088 WT1      2468     TIP3     H2       HT       0.417000        1.0080           0
      8089 WT1      2469     TIP3     OH2      OT      -0.834000       15.9994           0
      8090 WT1      2469     TIP3     H1       HT       0.417000        1.0080           0
      8091 WT1      2469     TIP3     H2       HT       0.417000        1.0080           0
      8092 WT1      2470     TIP3     OH2      OT      -0.834000       15.9994           0
      8093 WT1      2470     TIP3     H1       HT       0.417000        1.0080           0
      8094 WT1      2470     TIP3     H2       HT       0.417000        1.0080           0
      8095 WT1      2471     TIP3     OH2      OT      -0.834000       15.9994           0
      8096 WT1      2471     TIP3     H1       HT       0.417000        1.0080           0
      8097 WT1      2471     TIP3     H2       HT       0.417000        1.0080           0
      8098 WT1      2472     TIP3     OH2      OT      -0.834000       15.9994           0
      8099 WT1      2472     TIP3     H1       HT       0.417000        1.0080           0
      8100 WT1      2472     TIP3     H2       HT       0.417000        1.0080           0
      8101 WT1      2473     TIP3     OH2      OT      -0.834000       15.9994           0
      8102 WT1      2473     TIP3     H1       HT       0.417000        1.0080           0
      8103 WT1      2473     TIP3     H2       HT       0.417000        1.0080           0
      8104 WT1      2474     TIP3     OH2      OT      -0.834000       15.9994           0
      8105 WT1      2474     TIP3     H1       HT       0.417000        1.0080           0
      8106 WT1      2474     TIP3     H2       HT       0.417000        1.0080           0
      8107 WT1      2475     TIP3     OH2      OT      -0.834000       15.9994           0
      8108 WT1      2475     TIP3     H1       HT       0.417000        1.0080           0
      8109 WT1      2475     TIP3     H2       HT       0.417000        1.0080           0
      8110 WT1      2476     TIP3     OH2      OT      -0.834000       15.9994           0
      8111 WT1      2476     TIP3     H1       HT       0.417000        1.0080           0
      8112 WT1      2476     TIP3     H2       HT       0.417000        1.0080           0
      8113 WT1      2478     TIP3     OH2      OT      -0.834000       15.9994           0
      8114 WT1      2478     TIP3     H1       HT       0.417000        1.0080           0
      8115 WT1      2478     TIP3     H2       HT       0.417000        1.0080           0
      8116 WT1      2479     TIP3     OH2      OT      -0.834000       15.9994           0
      8117 WT1      2479     TIP3     H1       HT       0.417000        1.0080           0
      8118 WT1      2479     TIP3     H2       HT       0.417000        1.0080           0
      8119 WT1      2480     TIP3     OH2      OT      -0.834000       15.9994           0
      8120 WT1      2480     TIP3     H1       HT       0.417000        1.0080           0
      8121 WT1      2480     TIP3     H2       HT       0.417000        1.0080           0
      8122 WT1      2481     TIP3     OH2      OT      -0.834000       15.9994           0
      8123 WT1      2481     TIP3     H1       HT       0.417000        1.0080           0
      8124 WT1      2481     TIP3     H2       HT       0.417000        1.0080           0
      8125 WT1      2482     TIP3     OH2      OT      -0.834000       15.9994           0
      8126 WT1      2482     TIP3     H1       HT       0.417000        1.0080           0
      8127 WT1      2482     TIP3     H2       HT       0.417000        1.0080           0
      8128 WT1      2483     TIP3     OH2      OT      -0.834000       15.9994           0
      8129 WT1      2483     TIP3     H1       HT       0.417000        1.0080           0
      8130 WT1      2483     TIP3     H2       HT       0.417000        1.0080           0
      8131 WT1      2484     TIP3     OH2      OT      -0.834000       15.9994           0
      8132 WT1      2484     TIP3     H1       HT       0.417000        1.0080           0
      8133 WT1      2484     TIP3     H2       HT       0.417000        1.0080           0
      8134 WT1      2485     TIP3     OH2      OT      -0.834000       15.9994           0
      8135 WT1      2485     TIP3     H1       HT       0.417000        1.0080           0
      8136 WT1      2485     TIP3     H2       HT       0.417000        1.0080           0
      8137 WT1      2486     TIP3     OH2      OT      -0.834000       15.9994           0
      8138 WT1      2486     TIP3     H1       HT       0.417000        1.0080           0
      8139 WT1      2486     TIP3     H2       HT       0.417000        1.0080           0
      8140 WT1      2487     TIP3     OH2      OT      -0.834000       15.9994           0
      8141 WT1      2487     TIP3     H1       HT       0.417000        1.0080           0
      8142 WT1      2487     TIP3     H2       HT       0.417000        1.0080           0
      8143 WT1      2488     TIP3     OH2      OT      -0.834000       15.9994           0
      8144 WT1      2488     TIP3     H1       HT       0.417000        1.0080           0
      8145 WT1      2488     TIP3     H2       HT       0.417000        1.0080           0
      8146 WT1      2489     TIP3     OH2      OT      -0.834000       15.9994           0
      8147 WT1      2489     TIP3     H1       HT       0.417000        1.0080           0
      8148 WT1      2489     TIP3     H2       HT       0.417000        1.0080           0
      8149 WT1      2490     TIP3     OH2      OT      -0.834000       15.9994           0
      8150 WT1      2490     TIP3     H1       HT       0.417000        1.0080           0
      8151 WT1      2490     TIP3     H2       HT       0.417000        1.0080           0
      8152 WT1      2491     TIP3     OH2      OT      -0.834000       15.9994           0
      8153 WT1      2491     TIP3     H1       HT       0.417000        1.0080           0
      8154 WT1      2491     TIP3     H2       HT       0.417000        1.0080           0
      8155 WT1      2492     TIP3     OH2      OT      -0.834000       15.9994           0
      8156 WT1      2492     TIP3     H1       HT       0.417000        1.0080           0
      8157 WT1      2492     TIP3     H2       HT       0.417000        1.0080           0
      8158 WT1      2493     TIP3     OH2      OT      -0.834000       15.9994           0
      8159 WT1      2493     TIP3     H1       HT       0.417000        1.0080           0
      8160 WT1      2493     TIP3     H2       HT       0.417000        1.0080           0
      8161 WT1      2494     TIP3     OH2      OT      -0.834000       15.9994           0
      8162 WT1      2494     TIP3     H1       HT       0.417000        1.0080           0
      8163 WT1      2494     TIP3     H2       HT       0.417000        1.0080           0
      8164 WT1      2495     TIP3     OH2      OT      -0.834000       15.9994           0
      8165 WT1      2495     TIP3     H1       HT       0.417000        1.0080           0
      8166 WT1      2495     TIP3     H2       HT       0.417000        1.0080           0
      8167 WT1      2496     TIP3     OH2      OT      -0.834000       15.9994           0
      8168 WT1      2496     TIP3     H1       HT       0.417000        1.0080           0
      8169 WT1      2496     TIP3     H2       HT       0.417000        1.0080           0
      8170 WT1      2497     TIP3     OH2      OT      -0.834000       15.9994           0
      8171 WT1      2497     TIP3     H1       HT       0.417000        1.0080           0
      8172 WT1      2497     TIP3     H2       HT       0.417000        1.0080           0
      8173 WT1      2498     TIP3     OH2      OT      -0.834000       15.9994           0
      8174 WT1      2498     TIP3     H1       HT       0.417000        1.0080           0
      8175 WT1      2498     TIP3     H2       HT       0.417000        1.0080           0
      8176 WT1      2499     TIP3     OH2      OT      -0.834000       15.9994           0
      8177 WT1      2499     TIP3     H1       HT       0.417000        1.0080           0
      8178 WT1      2499     TIP3     H2       HT       0.417000        1.0080           0
      8179 WT1      2500     TIP3     OH2      OT      -0.834000       15.9994           0
      8180 WT1      2500     TIP3     H1       HT       0.417000        1.0080           0
      8181 WT1      2500     TIP3     H2       HT       0.417000        1.0080           0
      8182 WT1      2501     TIP3     OH2      OT      -0.834000       15.9994           0
      8183 WT1      2501     TIP3     H1       HT       0.417000        1.0080           0
      8184 WT1      2501     TIP3     H2       HT       0.417000        1.0080           0
      8185 WT1      2502     TIP3     OH2      OT      -0.834000       15.9994           0
      8186 WT1      2502     TIP3     H1       HT       0.417000        1.0080           0
      8187 WT1      2502     TIP3     H2       HT       0.417000        1.0080           0
      8188 WT1      2503     TIP3     OH2      OT      -0.834000       15.9994           0
      8189 WT1      2503     TIP3     H1       HT       0.417000        1.0080           0
      8190 WT1      2503     TIP3     H2       HT       0.417000        1.0080           0
      8191 WT1      2504     TIP3     OH2      OT      -0.834000       15.9994           0
      8192 WT1      2504     TIP3     H1       HT       0.417000        1.0080           0
      8193 WT1      2504     TIP3     H2       HT       0.417000        1.0080           0
      8194 WT1      2505     TIP3     OH2      OT      -0.834000       15.9994           0
      8195 WT1      2505     TIP3     H1       HT       0.417000        1.0080           0
      8196 WT1      2505     TIP3     H2       HT       0.417000        1.0080           0
      8197 WT1      2506     TIP3     OH2      OT      -0.834000       15.9994           0
      8198 WT1      2506     TIP3     H1       HT       0.417000        1.0080           0
      8199 WT1      2506     TIP3     H2       HT       0.417000        1.0080           0
      8200 WT1      2507     TIP3     OH2      OT      -0.834000       15.9994           0
      8201 WT1      2507     TIP3     H1       HT       0.417000        1.0080           0
      8202 WT1      2507     TIP3     H2       HT       0.417000        1.0080           0
      8203 WT1      2508     TIP3     OH2      OT      -0.834000       15.9994           0
      8204 WT1      2508     TIP3     H1       HT       0.417000        1.0080           0
      8205 WT1      2508     TIP3     H2       HT       0.417000        1.0080           0
      8206 WT1      2509     TIP3     OH2      OT      -0.834000       15.9994           0
      8207 WT1      2509     TIP3     H1       HT       0.417000        1.0080           0
      8208 WT1      2509     TIP3     H2       HT       0.417000        1.0080           0
      8209 WT1      2510     TIP3     OH2      OT      -0.834000       15.9994           0
      8210 WT1      2510     TIP3     H1       HT       0.417000        1.0080           0
      8211 WT1      2510     TIP3     H2       HT       0.417000        1.0080           0
      8212 WT1      2511     TIP3     OH2      OT      -0.834000       15.9994           0
      8213 WT1      2511     TIP3     H1       HT       0.417000        1.0080           0
      8214 WT1      2511     TIP3     H2       HT       0.417000        1.0080           0
      8215 WT1      2512     TIP3     OH2      OT      -0.834000       15.9994           0
      8216 WT1      2512     TIP3     H1       HT       0.417000        1.0080           0
      8217 WT1      2512     TIP3     H2       HT       0.417000        1.0080           0
      8218 WT1      2513     TIP3     OH2      OT      -0.834000       15.9994           0
      8219 WT1      2513     TIP3     H1       HT       0.417000        1.0080           0
      8220 WT1      2513     TIP3     H2       HT       0.417000        1.0080           0
      8221 WT1      2514     TIP3     OH2      OT      -0.834000       15.9994           0
      8222 WT1      2514     TIP3     H1       HT       0.417000        1.0080           0
      8223 WT1      2514     TIP3     H2       HT       0.417000        1.0080           0
      8224 WT1      2515     TIP3     OH2      OT      -0.834000       15.9994           0
      8225 WT1      2515     TIP3     H1       HT       0.417000        1.0080           0
      8226 WT1      2515     TIP3     H2       HT       0.417000        1.0080           0
      8227 WT1      2516     TIP3     OH2      OT      -0.834000       15.9994           0
      8228 WT1      2516     TIP3     H1       HT       0.417000        1.0080           0
      8229 WT1      2516     TIP3     H2       HT       0.417000        1.0080           0
      8230 WT1      2517     TIP3     OH2      OT      -0.834000       15.9994           0
      8231 WT1      2517     TIP3     H1       HT       0.417000        1.0080           0
      8232 WT1      2517     TIP3     H2       HT       0.417000        1.0080           0
      8233 WT1      2518     TIP3     OH2      OT      -0.834000       15.9994           0
      8234 WT1      2518     TIP3     H1       HT       0.417000        1.0080           0
      8235 WT1      2518     TIP3     H2       HT       0.417000        1.0080           0
      8236 WT1      2519     TIP3     OH2      OT      -0.834000       15.9994           0
      8237 WT1      2519     TIP3     H1       HT       0.417000        1.0080           0
      8238 WT1      2519     TIP3     H2       HT       0.417000        1.0080           0
      8239 WT1      2520     TIP3     OH2      OT      -0.834000       15.9994           0
      8240 WT1      2520     TIP3     H1       HT       0.417000        1.0080           0
      8241 WT1      2520     TIP3     H2       HT       0.417000        1.0080           0
      8242 WT1      2521     TIP3     OH2      OT      -0.834000       15.9994           0
      8243 WT1      2521     TIP3     H1       HT       0.417000        1.0080           0
      8244 WT1      2521     TIP3     H2       HT       0.417000        1.0080           0
      8245 WT1      2522     TIP3     OH2      OT      -0.834000       15.9994           0
      8246 WT1      2522     TIP3     H1       HT       0.417000        1.0080           0
      8247 WT1      2522     TIP3     H2       HT       0.417000        1.0080           0
      8248 WT1      2523     TIP3     OH2      OT      -0.834000       15.9994           0
      8249 WT1      2523     TIP3     H1       HT       0.417000        1.0080           0
      8250 WT1      2523     TIP3     H2       HT       0.417000        1.0080           0
      8251 WT1      2525     TIP3     OH2      OT      -0.834000       15.9994           0
      8252 WT1      2525     TIP3     H1       HT       0.417000        1.0080           0
      8253 WT1      2525     TIP3     H2       HT       0.417000        1.0080           0
      8254 WT1      2526     TIP3     OH2      OT      -0.834000       15.9994           0
      8255 WT1      2526     TIP3     H1       HT       0.417000        1.0080           0
      8256 WT1      2526     TIP3     H2       HT       0.417000        1.0080           0
      8257 WT1      2527     TIP3     OH2      OT      -0.834000       15.9994           0
      8258 WT1      2527     TIP3     H1       HT       0.417000        1.0080           0
      8259 WT1      2527     TIP3     H2       HT       0.417000        1.0080           0
      8260 WT1      2528     TIP3     OH2      OT      -0.834000       15.9994           0
      8261 WT1      2528     TIP3     H1       HT       0.417000        1.0080           0
      8262 WT1      2528     TIP3     H2       HT       0.417000        1.0080           0
      8263 WT1      2529     TIP3     OH2      OT      -0.834000       15.9994           0
      8264 WT1      2529     TIP3     H1       HT       0.417000        1.0080           0
      8265 WT1      2529     TIP3     H2       HT       0.417000        1.0080           0
      8266 WT1      2530     TIP3     OH2      OT      -0.834000       15.9994           0
      8267 WT1      2530     TIP3     H1       HT       0.417000        1.0080           0
      8268 WT1      2530     TIP3     H2       HT       0.417000        1.0080           0
      8269 WT1      2531     TIP3     OH2      OT      -0.834000       15.9994           0
      8270 WT1      2531     TIP3     H1       HT       0.417000        1.0080           0
      8271 WT1      2531     TIP3     H2       HT       0.417000        1.0080           0
      8272 WT1      2532     TIP3     OH2      OT      -0.834000       15.9994           0
      8273 WT1      2532     TIP3     H1       HT       0.417000        1.0080           0
      8274 WT1      2532     TIP3     H2       HT       0.417000        1.0080           0
      8275 WT1      2533     TIP3     OH2      OT      -0.834000       15.9994           0
      8276 WT1      2533     TIP3     H1       HT       0.417000        1.0080           0
      8277 WT1      2533     TIP3     H2       HT       0.417000        1.0080           0
      8278 WT1      2534     TIP3     OH2      OT      -0.834000       15.9994           0
      8279 WT1      2534     TIP3     H1       HT       0.417000        1.0080           0
      8280 WT1      2534     TIP3     H2       HT       0.417000        1.0080           0
      8281 WT1      2535     TIP3     OH2      OT      -0.834000       15.9994           0
      8282 WT1      2535     TIP3     H1       HT       0.417000        1.0080           0
      8283 WT1      2535     TIP3     H2       HT       0.417000        1.0080           0
      8284 WT1      2536     TIP3     OH2      OT      -0.834000       15.9994           0
      8285 WT1      2536     TIP3     H1       HT       0.417000        1.0080           0
      8286 WT1      2536     TIP3     H2       HT       0.417000        1.0080           0
      8287 WT1      2537     TIP3     OH2      OT      -0.834000       15.9994           0
      8288 WT1      2537     TIP3     H1       HT       0.417000        1.0080           0
      8289 WT1      2537     TIP3     H2       HT       0.417000        1.0080           0
      8290 WT1      2538     TIP3     OH2      OT      -0.834000       15.9994           0
      8291 WT1      2538     TIP3     H1       HT       0.417000        1.0080           0
      8292 WT1      2538     TIP3     H2       HT       0.417000        1.0080           0
      8293 WT1      2539     TIP3     OH2      OT      -0.834000       15.9994           0
      8294 WT1      2539     TIP3     H1       HT       0.417000        1.0080           0
      8295 WT1      2539     TIP3     H2       HT       0.417000        1.0080           0
      8296 WT1      2540     TIP3     OH2      OT      -0.834000       15.9994           0
      8297 WT1      2540     TIP3     H1       HT       0.417000        1.0080           0
      8298 WT1      2540     TIP3     H2       HT       0.417000        1.0080           0
      8299 WT1      2541     TIP3     OH2      OT      -0.834000       15.9994           0
      8300 WT1      2541     TIP3     H1       HT       0.417000        1.0080           0
      8301 WT1      2541     TIP3     H2       HT       0.417000        1.0080           0
      8302 WT1      2542     TIP3     OH2      OT      -0.834000       15.9994           0
      8303 WT1      2542     TIP3     H1       HT       0.417000        1.0080           0
      8304 WT1      2542     TIP3     H2       HT       0.417000        1.0080           0
      8305 WT1      2543     TIP3     OH2      OT      -0.834000       15.9994           0
      8306 WT1      2543     TIP3     H1       HT       0.417000        1.0080           0
      8307 WT1      2543     TIP3     H2       HT       0.417000        1.0080           0
      8308 WT1      2544     TIP3     OH2      OT      -0.834000       15.9994           0
      8309 WT1      2544     TIP3     H1       HT       0.417000        1.0080           0
      8310 WT1      2544     TIP3     H2       HT       0.417000        1.0080           0
      8311 WT1      2545     TIP3     OH2      OT      -0.834000       15.9994           0
      8312 WT1      2545     TIP3     H1       HT       0.417000        1.0080           0
      8313 WT1      2545     TIP3     H2       HT       0.417000        1.0080           0
      8314 WT1      2546     TIP3     OH2      OT      -0.834000       15.9994           0
      8315 WT1      2546     TIP3     H1       HT       0.417000        1.0080           0
      8316 WT1      2546     TIP3     H2       HT       0.417000        1.0080           0
      8317 WT1      2547     TIP3     OH2      OT      -0.834000       15.9994           0
      8318 WT1      2547     TIP3     H1       HT       0.417000        1.0080           0
      8319 WT1      2547     TIP3     H2       HT       0.417000        1.0080           0
      8320 WT1      2548     TIP3     OH2      OT      -0.834000       15.9994           0
      8321 WT1      2548     TIP3     H1       HT       0.417000        1.0080           0
      8322 WT1      2548     TIP3     H2       HT       0.417000        1.0080           0
      8323 WT1      2549     TIP3     OH2      OT      -0.834000       15.9994           0
      8324 WT1      2549     TIP3     H1       HT       0.417000        1.0080           0
      8325 WT1      2549     TIP3     H2       HT       0.417000        1.0080           0
      8326 WT1      2550     TIP3     OH2      OT      -0.834000       15.9994           0
      8327 WT1      2550     TIP3     H1       HT       0.417000        1.0080           0
      8328 WT1      2550     TIP3     H2       HT       0.417000        1.0080           0
      8329 WT1      2551     TIP3     OH2      OT      -0.834000       15.9994           0
      8330 WT1      2551     TIP3     H1       HT       0.417000        1.0080           0
      8331 WT1      2551     TIP3     H2       HT       0.417000        1.0080           0
      8332 WT1      2552     TIP3     OH2      OT      -0.834000       15.9994           0
      8333 WT1      2552     TIP3     H1       HT       0.417000        1.0080           0
      8334 WT1      2552     TIP3     H2       HT       0.417000        1.0080           0
      8335 WT1      2553     TIP3     OH2      OT      -0.834000       15.9994           0
      8336 WT1      2553     TIP3     H1       HT       0.417000        1.0080           0
      8337 WT1      2553     TIP3     H2       HT       0.417000        1.0080           0
      8338 WT1      2554     TIP3     OH2      OT      -0.834000       15.9994           0
      8339 WT1      2554     TIP3     H1       HT       0.417000        1.0080           0
      8340 WT1      2554     TIP3     H2       HT       0.417000        1.0080           0
      8341 WT1      2555     TIP3     OH2      OT      -0.834000       15.9994           0
      8342 WT1      2555     TIP3     H1       HT       0.417000        1.0080           0
      8343 WT1      2555     TIP3     H2       HT       0.417000        1.0080           0
      8344 WT1      2556     TIP3     OH2      OT      -0.834000       15.9994           0
      8345 WT1      2556     TIP3     H1       HT       0.417000        1.0080           0
      8346 WT1      2556     TIP3     H2       HT       0.417000        1.0080           0
      8347 WT1      2557     TIP3     OH2      OT      -0.834000       15.9994           0
      8348 WT1      2557     TIP3     H1       HT       0.417000        1.0080           0
      8349 WT1      2557     TIP3     H2       HT       0.417000        1.0080           0
      8350 WT1      2558     TIP3     OH2      OT      -0.834000       15.9994           0
      8351 WT1      2558     TIP3     H1       HT       0.417000        1.0080           0
      8352 WT1      2558     TIP3     H2       HT       0.417000        1.0080           0
      8353 WT1      2559     TIP3     OH2      OT      -0.834000       15.9994           0
      8354 WT1      2559     TIP3     H1       HT       0.417000        1.0080           0
      8355 WT1      2559     TIP3     H2       HT       0.417000        1.0080           0
      8356 WT1      2560     TIP3     OH2      OT      -0.834000       15.9994           0
      8357 WT1      2560     TIP3     H1       HT       0.417000        1.0080           0
      8358 WT1      2560     TIP3     H2       HT       0.417000        1.0080           0
      8359 WT1      2561     TIP3     OH2      OT      -0.834000       15.9994           0
      8360 WT1      2561     TIP3     H1       HT       0.417000        1.0080           0
      8361 WT1      2561     TIP3     H2       HT       0.417000        1.0080           0
      8362 WT1      2563     TIP3     OH2      OT      -0.834000       15.9994           0
      8363 WT1      2563     TIP3     H1       HT       0.417000        1.0080           0
      8364 WT1      2563     TIP3     H2       HT       0.417000        1.0080           0
      8365 WT1      2564     TIP3     OH2      OT      -0.834000       15.9994           0
      8366 WT1      2564     TIP3     H1       HT       0.417000        1.0080           0
      8367 WT1      2564     TIP3     H2       HT       0.417000        1.0080           0
      8368 WT1      2565     TIP3     OH2      OT      -0.834000       15.9994           0
      8369 WT1      2565     TIP3     H1       HT       0.417000        1.0080           0
      8370 WT1      2565     TIP3     H2       HT       0.417000        1.0080           0
      8371 WT1      2566     TIP3     OH2      OT      -0.834000       15.9994           0
      8372 WT1      2566     TIP3     H1       HT       0.417000        1.0080           0
      8373 WT1      2566     TIP3     H2       HT       0.417000        1.0080           0
      8374 WT1      2567     TIP3     OH2      OT      -0.834000       15.9994           0
      8375 WT1      2567     TIP3     H1       HT       0.417000        1.0080           0
      8376 WT1      2567     TIP3     H2       HT       0.417000        1.0080           0
      8377 WT1      2568     TIP3     OH2      OT      -0.834000       15.9994           0
      8378 WT1      2568     TIP3     H1       HT       0.417000        1.0080           0
      8379 WT1      2568     TIP3     H2       HT       0.417000        1.0080           0
      8380 WT1      2569     TIP3     OH2      OT      -0.834000       15.9994           0
      8381 WT1      2569     TIP3     H1       HT       0.417000        1.0080           0
      8382 WT1      2569     TIP3     H2       HT       0.417000        1.0080           0
      8383 WT1      2570     TIP3     OH2      OT      -0.834000       15.9994           0
      8384 WT1      2570     TIP3     H1       HT       0.417000        1.0080           0
      8385 WT1      2570     TIP3     H2       HT       0.417000        1.0080           0
      8386 WT1      2571     TIP3     OH2      OT      -0.834000       15.9994           0
      8387 WT1      2571     TIP3     H1       HT       0.417000        1.0080           0
      8388 WT1      2571     TIP3     H2       HT       0.417000        1.0080           0
      8389 WT1      2572     TIP3     OH2      OT      -0.834000       15.9994           0
      8390 WT1      2572     TIP3     H1       HT       0.417000        1.0080           0
      8391 WT1      2572     TIP3     H2       HT       0.417000        1.0080           0
      8392 WT1      2573     TIP3     OH2      OT      -0.834000       15.9994           0
      8393 WT1      2573     TIP3     H1       HT       0.417000        1.0080           0
      8394 WT1      2573     TIP3     H2       HT       0.417000        1.0080           0
      8395 WT1      2574     TIP3     OH2      OT      -0.834000       15.9994           0
      8396 WT1      2574     TIP3     H1       HT       0.417000        1.0080           0
      8397 WT1      2574     TIP3     H2       HT       0.417000        1.0080           0
      8398 WT1      2575     TIP3     OH2      OT      -0.834000       15.9994           0
      8399 WT1      2575     TIP3     H1       HT       0.417000        1.0080           0
      8400 WT1      2575     TIP3     H2       HT       0.417000        1.0080           0
      8401 WT1      2576     TIP3     OH2      OT      -0.834000       15.9994           0
      8402 WT1      2576     TIP3     H1       HT       0.417000        1.0080           0
      8403 WT1      2576     TIP3     H2       HT       0.417000        1.0080           0
      8404 WT1      2577     TIP3     OH2      OT      -0.834000       15.9994           0
      8405 WT1      2577     TIP3     H1       HT       0.417000        1.0080           0
      8406 WT1      2577     TIP3     H2       HT       0.417000        1.0080           0
      8407 WT1      2578     TIP3     OH2      OT      -0.834000       15.9994           0
      8408 WT1      2578     TIP3     H1       HT       0.417000        1.0080           0
      8409 WT1      2578     TIP3     H2       HT       0.417000        1.0080           0
      8410 WT1      2579     TIP3     OH2      OT      -0.834000       15.9994           0
      8411 WT1      2579     TIP3     H1       HT       0.417000        1.0080           0
      8412 WT1      2579     TIP3     H2       HT       0.417000        1.0080           0
      8413 WT1      2580     TIP3     OH2      OT      -0.834000       15.9994           0
      8414 WT1      2580     TIP3     H1       HT       0.417000        1.0080           0
      8415 WT1      2580     TIP3     H2       HT       0.417000        1.0080           0
      8416 WT1      2581     TIP3     OH2      OT      -0.834000       15.9994           0
      8417 WT1      2581     TIP3     H1       HT       0.417000        1.0080           0
      8418 WT1      2581     TIP3     H2       HT       0.417000        1.0080           0
      8419 WT1      2582     TIP3     OH2      OT      -0.834000       15.9994           0
      8420 WT1      2582     TIP3     H1       HT       0.417000        1.0080           0
      8421 WT1      2582     TIP3     H2       HT       0.417000        1.0080           0
      8422 WT1      2583     TIP3     OH2      OT      -0.834000       15.9994           0
      8423 WT1      2583     TIP3     H1       HT       0.417000        1.0080           0
      8424 WT1      2583     TIP3     H2       HT       0.417000        1.0080           0
      8425 WT1      2584     TIP3     OH2      OT      -0.834000       15.9994           0
      8426 WT1      2584     TIP3     H1       HT       0.417000        1.0080           0
      8427 WT1      2584     TIP3     H2       HT       0.417000        1.0080           0
      8428 WT1      2585     TIP3     OH2      OT      -0.834000       15.9994           0
      8429 WT1      2585     TIP3     H1       HT       0.417000        1.0080           0
      8430 WT1      2585     TIP3     H2       HT       0.417000        1.0080           0
      8431 WT1      2586     TIP3     OH2      OT      -0.834000       15.9994           0
      8432 WT1      2586     TIP3     H1       HT       0.417000        1.0080           0
      8433 WT1      2586     TIP3     H2       HT       0.417000        1.0080           0
      8434 WT1      2587     TIP3     OH2      OT      -0.834000       15.9994           0
      8435 WT1      2587     TIP3     H1       HT       0.417000        1.0080           0
      8436 WT1      2587     TIP3     H2       HT       0.417000        1.0080           0
      8437 WT1      2588     TIP3     OH2      OT      -0.834000       15.9994           0
      8438 WT1      2588     TIP3     H1       HT       0.417000        1.0080           0
      8439 WT1      2588     TIP3     H2       HT       0.417000        1.0080           0
      8440 WT1      2589     TIP3     OH2      OT      -0.834000       15.9994           0
      8441 WT1      2589     TIP3     H1       HT       0.417000        1.0080           0
      8442 WT1      2589     TIP3     H2       HT       0.417000        1.0080           0
      8443 WT1      2590     TIP3     OH2      OT      -0.834000       15.9994           0
      8444 WT1      2590     TIP3     H1       HT       0.417000        1.0080           0
      8445 WT1      2590     TIP3     H2       HT       0.417000        1.0080           0
      8446 WT1      2591     TIP3     OH2      OT      -0.834000       15.9994           0
      8447 WT1      2591     TIP3     H1       HT       0.417000        1.0080           0
      8448 WT1      2591     TIP3     H2       HT       0.417000        1.0080           0
      8449 WT1      2592     TIP3     OH2      OT      -0.834000       15.9994           0
      8450 WT1      2592     TIP3     H1       HT       0.417000        1.0080           0
      8451 WT1      2592     TIP3     H2       HT       0.417000        1.0080           0
      8452 WT1      2593     TIP3     OH2      OT      -0.834000       15.9994           0
      8453 WT1      2593     TIP3     H1       HT       0.417000        1.0080           0
      8454 WT1      2593     TIP3     H2       HT       0.417000        1.0080           0
      8455 WT1      2594     TIP3     OH2      OT      -0.834000       15.9994           0
      8456 WT1      2594     TIP3     H1       HT       0.417000        1.0080           0
      8457 WT1      2594     TIP3     H2       HT       0.417000        1.0080           0
      8458 WT1      2595     TIP3     OH2      OT      -0.834000       15.9994           0
      8459 WT1      2595     TIP3     H1       HT       0.417000        1.0080           0
      8460 WT1      2595     TIP3     H2       HT       0.417000        1.0080           0
      8461 WT1      2596     TIP3     OH2      OT      -0.834000       15.9994           0
      8462 WT1      2596     TIP3     H1       HT       0.417000        1.0080           0
      8463 WT1      2596     TIP3     H2       HT       0.417000        1.0080           0
      8464 WT1      2597     TIP3     OH2      OT      -0.834000       15.9994           0
      8465 WT1      2597     TIP3     H1       HT       0.417000        1.0080           0
      8466 WT1      2597     TIP3     H2       HT       0.417000        1.0080           0
      8467 WT1      2598     TIP3     OH2      OT      -0.834000       15.9994           0
      8468 WT1      2598     TIP3     H1       HT       0.417000        1.0080           0
      8469 WT1      2598     TIP3     H2       HT       0.417000        1.0080           0
      8470 WT1      2599     TIP3     OH2      OT      -0.834000       15.9994           0
      8471 WT1      2599     TIP3     H1       HT       0.417000        1.0080           0
      8472 WT1      2599     TIP3     H2       HT       0.417000        1.0080           0
      8473 WT1      2600     TIP3     OH2      OT      -0.834000       15.9994           0
      8474 WT1      2600     TIP3     H1       HT       0.417000        1.0080           0
      8475 WT1      2600     TIP3     H2       HT       0.417000        1.0080           0
      8476 WT1      2601     TIP3     OH2      OT      -0.834000       15.9994           0
      8477 WT1      2601     TIP3     H1       HT       0.417000        1.0080           0
      8478 WT1      2601     TIP3     H2       HT       0.417000        1.0080           0
      8479 WT1      2602     TIP3     OH2      OT      -0.834000       15.9994           0
      8480 WT1      2602     TIP3     H1       HT       0.417000        1.0080           0
      8481 WT1      2602     TIP3     H2       HT       0.417000        1.0080           0
      8482 WT1      2603     TIP3     OH2      OT      -0.834000       15.9994           0
      8483 WT1      2603     TIP3     H1       HT       0.417000        1.0080           0
      8484 WT1      2603     TIP3     H2       HT       0.417000        1.0080           0
      8485 WT1      2604     TIP3     OH2      OT      -0.834000       15.9994           0
      8486 WT1      2604     TIP3     H1       HT       0.417000        1.0080           0
      8487 WT1      2604     TIP3     H2       HT       0.417000        1.0080           0
      8488 WT1      2605     TIP3     OH2      OT      -0.834000       15.9994           0
      8489 WT1      2605     TIP3     H1       HT       0.417000        1.0080           0
      8490 WT1      2605     TIP3     H2       HT       0.417000        1.0080           0
      8491 WT1      2606     TIP3     OH2      OT      -0.834000       15.9994           0
      8492 WT1      2606     TIP3     H1       HT       0.417000        1.0080           0
      8493 WT1      2606     TIP3     H2       HT       0.417000        1.0080           0
      8494 WT1      2607     TIP3     OH2      OT      -0.834000       15.9994           0
      8495 WT1      2607     TIP3     H1       HT       0.417000        1.0080           0
      8496 WT1      2607     TIP3     H2       HT       0.417000        1.0080           0
      8497 WT1      2608     TIP3     OH2      OT      -0.834000       15.9994           0
      8498 WT1      2608     TIP3     H1       HT       0.417000        1.0080           0
      8499 WT1      2608     TIP3     H2       HT       0.417000        1.0080           0
      8500 WT1      2609     TIP3     OH2      OT      -0.834000       15.9994           0
      8501 WT1      2609     TIP3     H1       HT       0.417000        1.0080           0
      8502 WT1      2609     TIP3     H2       HT       0.417000        1.0080           0
      8503 WT1      2610     TIP3     OH2      OT      -0.834000       15.9994           0
      8504 WT1      2610     TIP3     H1       HT       0.417000        1.0080           0
      8505 WT1      2610     TIP3     H2       HT       0.417000        1.0080           0
      8506 WT1      2611     TIP3     OH2      OT      -0.834000       15.9994           0
      8507 WT1      2611     TIP3     H1       HT       0.417000        1.0080           0
      8508 WT1      2611     TIP3     H2       HT       0.417000        1.0080           0
      8509 WT1      2612     TIP3     OH2      OT      -0.834000       15.9994           0
      8510 WT1      2612     TIP3     H1       HT       0.417000        1.0080           0
      8511 WT1      2612     TIP3     H2       HT       0.417000        1.0080           0
      8512 WT1      2613     TIP3     OH2      OT      -0.834000       15.9994           0
      8513 WT1      2613     TIP3     H1       HT       0.417000        1.0080           0
      8514 WT1      2613     TIP3     H2       HT       0.417000        1.0080           0
      8515 WT1      2614     TIP3     OH2      OT      -0.834000       15.9994           0
      8516 WT1      2614     TIP3     H1       HT       0.417000        1.0080           0
      8517 WT1      2614     TIP3     H2       HT       0.417000        1.0080           0
      8518 WT1      2615     TIP3     OH2      OT      -0.834000       15.9994           0
      8519 WT1      2615     TIP3     H1       HT       0.417000        1.0080           0
      8520 WT1      2615     TIP3     H2       HT       0.417000        1.0080           0
      8521 WT1      2616     TIP3     OH2      OT      -0.834000       15.9994           0
      8522 WT1      2616     TIP3     H1       HT       0.417000        1.0080           0
      8523 WT1      2616     TIP3     H2       HT       0.417000        1.0080           0
      8524 WT1      2617     TIP3     OH2      OT      -0.834000       15.9994           0
      8525 WT1      2617     TIP3     H1       HT       0.417000        1.0080           0
      8526 WT1      2617     TIP3     H2       HT       0.417000        1.0080           0
      8527 WT1      2618     TIP3     OH2      OT      -0.834000       15.9994           0
      8528 WT1      2618     TIP3     H1       HT       0.417000        1.0080           0
      8529 WT1      2618     TIP3     H2       HT       0.417000        1.0080           0
      8530 WT1      2619     TIP3     OH2      OT      -0.834000       15.9994           0
      8531 WT1      2619     TIP3     H1       HT       0.417000        1.0080           0
      8532 WT1      2619     TIP3     H2       HT       0.417000        1.0080           0
      8533 WT1      2620     TIP3     OH2      OT      -0.834000       15.9994           0
      8534 WT1      2620     TIP3     H1       HT       0.417000        1.0080           0
      8535 WT1      2620     TIP3     H2       HT       0.417000        1.0080           0
      8536 WT1      2621     TIP3     OH2      OT      -0.834000       15.9994           0
      8537 WT1      2621     TIP3     H1       HT       0.417000        1.0080           0
      8538 WT1      2621     TIP3     H2       HT       0.417000        1.0080           0
      8539 WT1      2622     TIP3     OH2      OT      -0.834000       15.9994           0
      8540 WT1      2622     TIP3     H1       HT       0.417000        1.0080           0
      8541 WT1      2622     TIP3     H2       HT       0.417000        1.0080           0
      8542 WT1      2623     TIP3     OH2      OT      -0.834000       15.9994           0
      8543 WT1      2623     TIP3     H1       HT       0.417000        1.0080           0
      8544 WT1      2623     TIP3     H2       HT       0.417000        1.0080           0
      8545 WT1      2625     TIP3     OH2      OT      -0.834000       15.9994           0
      8546 WT1      2625     TIP3     H1       HT       0.417000        1.0080           0
      8547 WT1      2625     TIP3     H2       HT       0.417000        1.0080           0
      8548 WT1      2626     TIP3     OH2      OT      -0.834000       15.9994           0
      8549 WT1      2626     TIP3     H1       HT       0.417000        1.0080           0
      8550 WT1      2626     TIP3     H2       HT       0.417000        1.0080           0
      8551 WT1      2627     TIP3     OH2      OT      -0.834000       15.9994           0
      8552 WT1      2627     TIP3     H1       HT       0.417000        1.0080           0
      8553 WT1      2627     TIP3     H2       HT       0.417000        1.0080           0
      8554 WT1      2628     TIP3     OH2      OT      -0.834000       15.9994           0
      8555 WT1      2628     TIP3     H1       HT       0.417000        1.0080           0
      8556 WT1      2628     TIP3     H2       HT       0.417000        1.0080           0
      8557 WT1      2629     TIP3     OH2      OT      -0.834000       15.9994           0
      8558 WT1      2629     TIP3     H1       HT       0.417000        1.0080           0
      8559 WT1      2629     TIP3     H2       HT       0.417000        1.0080           0
      8560 WT1      2631     TIP3     OH2      OT      -0.834000       15.9994           0
      8561 WT1      2631     TIP3     H1       HT       0.417000        1.0080           0
      8562 WT1      2631     TIP3     H2       HT       0.417000        1.0080           0
      8563 WT1      2632     TIP3     OH2      OT      -0.834000       15.9994           0
      8564 WT1      2632     TIP3     H1       HT       0.417000        1.0080           0
      8565 WT1      2632     TIP3     H2       HT       0.417000        1.0080           0
      8566 WT1      2633     TIP3     OH2      OT      -0.834000       15.9994           0
      8567 WT1      2633     TIP3     H1       HT       0.417000        1.0080           0
      8568 WT1      2633     TIP3     H2       HT       0.417000        1.0080           0
      8569 WT1      2634     TIP3     OH2      OT      -0.834000       15.9994           0
      8570 WT1      2634     TIP3     H1       HT       0.417000        1.0080           0
      8571 WT1      2634     TIP3     H2       HT       0.417000        1.0080           0
      8572 WT1      2635     TIP3     OH2      OT      -0.834000       15.9994           0
      8573 WT1      2635     TIP3     H1       HT       0.417000        1.0080           0
      8574 WT1      2635     TIP3     H2       HT       0.417000        1.0080           0
      8575 WT1      2636     TIP3     OH2      OT      -0.834000       15.9994           0
      8576 WT1      2636     TIP3     H1       HT       0.417000        1.0080           0
      8577 WT1      2636     TIP3     H2       HT       0.417000        1.0080           0
      8578 WT1      2637     TIP3     OH2      OT      -0.834000       15.9994           0
      8579 WT1      2637     TIP3     H1       HT       0.417000        1.0080           0
      8580 WT1      2637     TIP3     H2       HT       0.417000        1.0080           0
      8581 WT1      2638     TIP3     OH2      OT      -0.834000       15.9994           0
      8582 WT1      2638     TIP3     H1       HT       0.417000        1.0080           0
      8583 WT1      2638     TIP3     H2       HT       0.417000        1.0080           0
      8584 WT1      2639     TIP3     OH2      OT      -0.834000       15.9994           0
      8585 WT1      2639     TIP3     H1       HT       0.417000        1.0080           0
      8586 WT1      2639     TIP3     H2       HT       0.417000        1.0080           0
      8587 WT1      2640     TIP3     OH2      OT      -0.834000       15.9994           0
      8588 WT1      2640     TIP3     H1       HT       0.417000        1.0080           0
      8589 WT1      2640     TIP3     H2       HT       0.417000        1.0080           0
      8590 WT1      2641     TIP3     OH2      OT      -0.834000       15.9994           0
      8591 WT1      2641     TIP3     H1       HT       0.417000        1.0080           0
      8592 WT1      2641     TIP3     H2       HT       0.417000        1.0080           0
      8593 WT1      2642     TIP3     OH2      OT      -0.834000       15.9994           0
      8594 WT1      2642     TIP3     H1       HT       0.417000        1.0080           0
      8595 WT1      2642     TIP3     H2       HT       0.417000        1.0080           0
      8596 WT1      2644     TIP3     OH2      OT      -0.834000       15.9994           0
      8597 WT1      2644     TIP3     H1       HT       0.417000        1.0080           0
      8598 WT1      2644     TIP3     H2       HT       0.417000        1.0080           0
      8599 WT1      2645     TIP3     OH2      OT      -0.834000       15.9994           0
      8600 WT1      2645     TIP3     H1       HT       0.417000        1.0080           0
      8601 WT1      2645     TIP3     H2       HT       0.417000        1.0080           0
      8602 WT1      2646     TIP3     OH2      OT      -0.834000       15.9994           0
      8603 WT1      2646     TIP3     H1       HT       0.417000        1.0080           0
      8604 WT1      2646     TIP3     H2       HT       0.417000        1.0080           0
      8605 WT1      2647     TIP3     OH2      OT      -0.834000       15.9994           0
      8606 WT1      2647     TIP3     H1       HT       0.417000        1.0080           0
      8607 WT1      2647     TIP3     H2       HT       0.417000        1.0080           0
      8608 WT1      2648     TIP3     OH2      OT      -0.834000       15.9994           0
      8609 WT1      2648     TIP3     H1       HT       0.417000        1.0080           0
      8610 WT1      2648     TIP3     H2       HT       0.417000        1.0080           0
      8611 WT1      2649     TIP3     OH2      OT      -0.834000       15.9994           0
      8612 WT1      2649     TIP3     H1       HT       0.417000        1.0080           0
      8613 WT1      2649     TIP3     H2       HT       0.417000        1.0080           0
      8614 WT1      2650     TIP3     OH2      OT      -0.834000       15.9994           0
      8615 WT1      2650     TIP3     H1       HT       0.417000        1.0080           0
      8616 WT1      2650     TIP3     H2       HT       0.417000        1.0080           0
      8617 WT1      2651     TIP3     OH2      OT      -0.834000       15.9994           0
      8618 WT1      2651     TIP3     H1       HT       0.417000        1.0080           0
      8619 WT1      2651     TIP3     H2       HT       0.417000        1.0080           0
      8620 WT1      2653     TIP3     OH2      OT      -0.834000       15.9994           0
      8621 WT1      2653     TIP3     H1       HT       0.417000        1.0080           0
      8622 WT1      2653     TIP3     H2       HT       0.417000        1.0080           0
      8623 WT1      2654     TIP3     OH2      OT      -0.834000       15.9994           0
      8624 WT1      2654     TIP3     H1       HT       0.417000        1.0080           0
      8625 WT1      2654     TIP3     H2       HT       0.417000        1.0080           0
      8626 WT1      2655     TIP3     OH2      OT      -0.834000       15.9994           0
      8627 WT1      2655     TIP3     H1       HT       0.417000        1.0080           0
      8628 WT1      2655     TIP3     H2       HT       0.417000        1.0080           0
      8629 WT1      2656     TIP3     OH2      OT      -0.834000       15.9994           0
      8630 WT1      2656     TIP3     H1       HT       0.417000        1.0080           0
      8631 WT1      2656     TIP3     H2       HT       0.417000        1.0080           0
      8632 WT1      2657     TIP3     OH2      OT      -0.834000       15.9994           0
      8633 WT1      2657     TIP3     H1       HT       0.417000        1.0080           0
      8634 WT1      2657     TIP3     H2       HT       0.417000        1.0080           0
      8635 WT1      2658     TIP3     OH2      OT      -0.834000       15.9994           0
      8636 WT1      2658     TIP3     H1       HT       0.417000        1.0080           0
      8637 WT1      2658     TIP3     H2       HT       0.417000        1.0080           0
      8638 WT1      2659     TIP3     OH2      OT      -0.834000       15.9994           0
      8639 WT1      2659     TIP3     H1       HT       0.417000        1.0080           0
      8640 WT1      2659     TIP3     H2       HT       0.417000        1.0080           0
      8641 WT1      2660     TIP3     OH2      OT      -0.834000       15.9994           0
      8642 WT1      2660     TIP3     H1       HT       0.417000        1.0080           0
      8643 WT1      2660     TIP3     H2       HT       0.417000        1.0080           0
      8644 WT1      2661     TIP3     OH2      OT      -0.834000       15.9994           0
      8645 WT1      2661     TIP3     H1       HT       0.417000        1.0080           0
      8646 WT1      2661     TIP3     H2       HT       0.417000        1.0080           0
      8647 WT1      2662     TIP3     OH2      OT      -0.834000       15.9994           0
      8648 WT1      2662     TIP3     H1       HT       0.417000        1.0080           0
      8649 WT1      2662     TIP3     H2       HT       0.417000        1.0080           0
      8650 WT1      2663     TIP3     OH2      OT      -0.834000       15.9994           0
      8651 WT1      2663     TIP3     H1       HT       0.417000        1.0080           0
      8652 WT1      2663     TIP3     H2       HT       0.417000        1.0080           0
      8653 WT1      2664     TIP3     OH2      OT      -0.834000       15.9994           0
      8654 WT1      2664     TIP3     H1       HT       0.417000        1.0080           0
      8655 WT1      2664     TIP3     H2       HT       0.417000        1.0080           0
      8656 WT1      2665     TIP3     OH2      OT      -0.834000       15.9994           0
      8657 WT1      2665     TIP3     H1       HT       0.417000        1.0080           0
      8658 WT1      2665     TIP3     H2       HT       0.417000        1.0080           0
      8659 WT1      2666     TIP3     OH2      OT      -0.834000       15.9994           0
      8660 WT1      2666     TIP3     H1       HT       0.417000        1.0080           0
      8661 WT1      2666     TIP3     H2       HT       0.417000        1.0080           0
      8662 WT1      2667     TIP3     OH2      OT      -0.834000       15.9994           0
      8663 WT1      2667     TIP3     H1       HT       0.417000        1.0080           0
      8664 WT1      2667     TIP3     H2       HT       0.417000        1.0080           0
      8665 WT1      2668     TIP3     OH2      OT      -0.834000       15.9994           0
      8666 WT1      2668     TIP3     H1       HT       0.417000        1.0080           0
      8667 WT1      2668     TIP3     H2       HT       0.417000        1.0080           0
      8668 WT1      2669     TIP3     OH2      OT      -0.834000       15.9994           0
      8669 WT1      2669     TIP3     H1       HT       0.417000        1.0080           0
      8670 WT1      2669     TIP3     H2       HT       0.417000        1.0080           0
      8671 WT1      2670     TIP3     OH2      OT      -0.834000       15.9994           0
      8672 WT1      2670     TIP3     H1       HT       0.417000        1.0080           0
      8673 WT1      2670     TIP3     H2       HT       0.417000        1.0080           0
      8674 WT1      2671     TIP3     OH2      OT      -0.834000       15.9994           0
      8675 WT1      2671     TIP3     H1       HT       0.417000        1.0080           0
      8676 WT1      2671     TIP3     H2       HT       0.417000        1.0080           0
      8677 WT1      2672     TIP3     OH2      OT      -0.834000       15.9994           0
      8678 WT1      2672     TIP3     H1       HT       0.417000        1.0080           0
      8679 WT1      2672     TIP3     H2       HT       0.417000        1.0080           0
      8680 WT1      2673     TIP3     OH2      OT      -0.834000       15.9994           0
      8681 WT1      2673     TIP3     H1       HT       0.417000        1.0080           0
      8682 WT1      2673     TIP3     H2       HT       0.417000        1.0080           0
      8683 WT1      2674     TIP3     OH2      OT      -0.834000       15.9994           0
      8684 WT1      2674     TIP3     H1       HT       0.417000        1.0080           0
      8685 WT1      2674     TIP3     H2       HT       0.417000        1.0080           0
      8686 WT1      2675     TIP3     OH2      OT      -0.834000       15.9994           0
      8687 WT1      2675     TIP3     H1       HT       0.417000        1.0080           0
      8688 WT1      2675     TIP3     H2       HT       0.417000        1.0080           0
      8689 WT1      2676     TIP3     OH2      OT      -0.834000       15.9994           0
      8690 WT1      2676     TIP3     H1       HT       0.417000        1.0080           0
      8691 WT1      2676     TIP3     H2       HT       0.417000        1.0080           0
      8692 WT1      2677     TIP3     OH2      OT      -0.834000       15.9994           0
      8693 WT1      2677     TIP3     H1       HT       0.417000        1.0080           0
      8694 WT1      2677     TIP3     H2       HT       0.417000        1.0080           0
      8695 WT1      2678     TIP3     OH2      OT      -0.834000       15.9994           0
      8696 WT1      2678     TIP3     H1       HT       0.417000        1.0080           0
      8697 WT1      2678     TIP3     H2       HT       0.417000        1.0080           0
      8698 WT1      2679     TIP3     OH2      OT      -0.834000       15.9994           0
      8699 WT1      2679     TIP3     H1       HT       0.417000        1.0080           0
      8700 WT1      2679     TIP3     H2       HT       0.417000        1.0080           0
      8701 WT1      2680     TIP3     OH2      OT      -0.834000       15.9994           0
      8702 WT1      2680     TIP3     H1       HT       0.417000        1.0080           0
      8703 WT1      2680     TIP3     H2       HT       0.417000        1.0080           0
      8704 WT1      2681     TIP3     OH2      OT      -0.834000       15.9994           0
      8705 WT1      2681     TIP3     H1       HT       0.417000        1.0080           0
      8706 WT1      2681     TIP3     H2       HT       0.417000        1.0080           0
      8707 WT1      2682     TIP3     OH2      OT      -0.834000       15.9994           0
      8708 WT1      2682     TIP3     H1       HT       0.417000        1.0080           0
      8709 WT1      2682     TIP3     H2       HT       0.417000        1.0080           0
      8710 WT1      2683     TIP3     OH2      OT      -0.834000       15.9994           0
      8711 WT1      2683     TIP3     H1       HT       0.417000        1.0080           0
      8712 WT1      2683     TIP3     H2       HT       0.417000        1.0080           0
      8713 WT1      2684     TIP3     OH2      OT      -0.834000       15.9994           0
      8714 WT1      2684     TIP3     H1       HT       0.417000        1.0080           0
      8715 WT1      2684     TIP3     H2       HT       0.417000        1.0080           0
      8716 WT1      2685     TIP3     OH2      OT      -0.834000       15.9994           0
      8717 WT1      2685     TIP3     H1       HT       0.417000        1.0080           0
      8718 WT1      2685     TIP3     H2       HT       0.417000        1.0080           0
      8719 WT1      2686     TIP3     OH2      OT      -0.834000       15.9994           0
      8720 WT1      2686     TIP3     H1       HT       0.417000        1.0080           0
      8721 WT1      2686     TIP3     H2       HT       0.417000        1.0080           0
      8722 WT1      2687     TIP3     OH2      OT      -0.834000       15.9994           0
      8723 WT1      2687     TIP3     H1       HT       0.417000        1.0080           0
      8724 WT1      2687     TIP3     H2       HT       0.417000        1.0080           0
      8725 WT1      2688     TIP3     OH2      OT      -0.834000       15.9994           0
      8726 WT1      2688     TIP3     H1       HT       0.417000        1.0080           0
      8727 WT1      2688     TIP3     H2       HT       0.417000        1.0080           0
      8728 WT1      2689     TIP3     OH2      OT      -0.834000       15.9994           0
      8729 WT1      2689     TIP3     H1       HT       0.417000        1.0080           0
      8730 WT1      2689     TIP3     H2       HT       0.417000        1.0080           0
      8731 WT1      2690     TIP3     OH2      OT      -0.834000       15.9994           0
      8732 WT1      2690     TIP3     H1       HT       0.417000        1.0080           0
      8733 WT1      2690     TIP3     H2       HT       0.417000        1.0080           0
      8734 WT1      2691     TIP3     OH2      OT      -0.834000       15.9994           0
      8735 WT1      2691     TIP3     H1       HT       0.417000        1.0080           0
      8736 WT1      2691     TIP3     H2       HT       0.417000        1.0080           0
      8737 WT1      2692     TIP3     OH2      OT      -0.834000       15.9994           0
      8738 WT1      2692     TIP3     H1       HT       0.417000        1.0080           0
      8739 WT1      2692     TIP3     H2       HT       0.417000        1.0080           0
      8740 WT1      2693     TIP3     OH2      OT      -0.834000       15.9994           0
      8741 WT1      2693     TIP3     H1       HT       0.417000        1.0080           0
      8742 WT1      2693     TIP3     H2       HT       0.417000        1.0080           0
      8743 WT1      2694     TIP3     OH2      OT      -0.834000       15.9994           0
      8744 WT1      2694     TIP3     H1       HT       0.417000        1.0080           0
      8745 WT1      2694     TIP3     H2       HT       0.417000        1.0080           0
      8746 WT1      2695     TIP3     OH2      OT      -0.834000       15.9994           0
      8747 WT1      2695     TIP3     H1       HT       0.417000        1.0080           0
      8748 WT1      2695     TIP3     H2       HT       0.417000        1.0080           0
      8749 WT1      2696     TIP3     OH2      OT      -0.834000       15.9994           0
      8750 WT1      2696     TIP3     H1       HT       0.417000        1.0080           0
      8751 WT1      2696     TIP3     H2       HT       0.417000        1.0080           0
      8752 WT1      2697     TIP3     OH2      OT      -0.834000       15.9994           0
      8753 WT1      2697     TIP3     H1       HT       0.417000        1.0080           0
      8754 WT1      2697     TIP3     H2       HT       0.417000        1.0080           0
      8755 WT1      2698     TIP3     OH2      OT      -0.834000       15.9994           0
      8756 WT1      2698     TIP3     H1       HT       0.417000        1.0080           0
      8757 WT1      2698     TIP3     H2       HT       0.417000        1.0080           0
      8758 WT1      2699     TIP3     OH2      OT      -0.834000       15.9994           0
      8759 WT1      2699     TIP3     H1       HT       0.417000        1.0080           0
      8760 WT1      2699     TIP3     H2       HT       0.417000        1.0080           0
      8761 WT1      2700     TIP3     OH2      OT      -0.834000       15.9994           0
      8762 WT1      2700     TIP3     H1       HT       0.417000        1.0080           0
      8763 WT1      2700     TIP3     H2       HT       0.417000        1.0080           0
      8764 WT1      2701     TIP3     OH2      OT      -0.834000       15.9994           0
      8765 WT1      2701     TIP3     H1       HT       0.417000        1.0080           0
      8766 WT1      2701     TIP3     H2       HT       0.417000        1.0080           0
      8767 WT1      2702     TIP3     OH2      OT      -0.834000       15.9994           0
      8768 WT1      2702     TIP3     H1       HT       0.417000        1.0080           0
      8769 WT1      2702     TIP3     H2       HT       0.417000        1.0080           0
      8770 WT1      2703     TIP3     OH2      OT      -0.834000       15.9994           0
      8771 WT1      2703     TIP3     H1       HT       0.417000        1.0080           0
      8772 WT1      2703     TIP3     H2       HT       0.417000        1.0080           0
      8773 WT1      2704     TIP3     OH2      OT      -0.834000       15.9994           0
      8774 WT1      2704     TIP3     H1       HT       0.417000        1.0080           0
      8775 WT1      2704     TIP3     H2       HT       0.417000        1.0080           0
      8776 WT1      2705     TIP3     OH2      OT      -0.834000       15.9994           0
      8777 WT1      2705     TIP3     H1       HT       0.417000        1.0080           0
      8778 WT1      2705     TIP3     H2       HT       0.417000        1.0080           0
      8779 WT1      2706     TIP3     OH2      OT      -0.834000       15.9994           0
      8780 WT1      2706     TIP3     H1       HT       0.417000        1.0080           0
      8781 WT1      2706     TIP3     H2       HT       0.417000        1.0080           0
      8782 WT1      2707     TIP3     OH2      OT      -0.834000       15.9994           0
      8783 WT1      2707     TIP3     H1       HT       0.417000        1.0080           0
      8784 WT1      2707     TIP3     H2       HT       0.417000        1.0080           0
      8785 WT1      2708     TIP3     OH2      OT      -0.834000       15.9994           0
      8786 WT1      2708     TIP3     H1       HT       0.417000        1.0080           0
      8787 WT1      2708     TIP3     H2       HT       0.417000        1.0080           0
      8788 WT1      2709     TIP3     OH2      OT      -0.834000       15.9994           0
      8789 WT1      2709     TIP3     H1       HT       0.417000        1.0080           0
      8790 WT1      2709     TIP3     H2       HT       0.417000        1.0080           0
      8791 WT1      2710     TIP3     OH2      OT      -0.834000       15.9994           0
      8792 WT1      2710     TIP3     H1       HT       0.417000        1.0080           0
      8793 WT1      2710     TIP3     H2       HT       0.417000        1.0080           0
      8794 WT1      2711     TIP3     OH2      OT      -0.834000       15.9994           0
      8795 WT1      2711     TIP3     H1       HT       0.417000        1.0080           0
      8796 WT1      2711     TIP3     H2       HT       0.417000        1.0080           0
      8797 WT1      2712     TIP3     OH2      OT      -0.834000       15.9994           0
      8798 WT1      2712     TIP3     H1       HT       0.417000        1.0080           0
      8799 WT1      2712     TIP3     H2       HT       0.417000        1.0080           0
      8800 WT1      2713     TIP3     OH2      OT      -0.834000       15.9994           0
      8801 WT1      2713     TIP3     H1       HT       0.417000        1.0080           0
      8802 WT1      2713     TIP3     H2       HT       0.417000        1.0080           0
      8803 WT1      2714     TIP3     OH2      OT      -0.834000       15.9994           0
      8804 WT1      2714     TIP3     H1       HT       0.417000        1.0080           0
      8805 WT1      2714     TIP3     H2       HT       0.417000        1.0080           0
      8806 WT1      2715     TIP3     OH2      OT      -0.834000       15.9994           0
      8807 WT1      2715     TIP3     H1       HT       0.417000        1.0080           0
      8808 WT1      2715     TIP3     H2       HT       0.417000        1.0080           0
      8809 WT1      2716     TIP3     OH2      OT      -0.834000       15.9994           0
      8810 WT1      2716     TIP3     H1       HT       0.417000        1.0080           0
      8811 WT1      2716     TIP3     H2       HT       0.417000        1.0080           0
      8812 WT1      2717     TIP3     OH2      OT      -0.834000       15.9994           0
      8813 WT1      2717     TIP3     H1       HT       0.417000        1.0080           0
      8814 WT1      2717     TIP3     H2       HT       0.417000        1.0080           0
      8815 WT1      2718     TIP3     OH2      OT      -0.834000       15.9994           0
      8816 WT1      2718     TIP3     H1       HT       0.417000        1.0080           0
      8817 WT1      2718     TIP3     H2       HT       0.417000        1.0080           0
      8818 WT1      2719     TIP3     OH2      OT      -0.834000       15.9994           0
      8819 WT1      2719     TIP3     H1       HT       0.417000        1.0080           0
      8820 WT1      2719     TIP3     H2       HT       0.417000        1.0080           0
      8821 WT1      2720     TIP3     OH2      OT      -0.834000       15.9994           0
      8822 WT1      2720     TIP3     H1       HT       0.417000        1.0080           0
      8823 WT1      2720     TIP3     H2       HT       0.417000        1.0080           0
      8824 WT1      2721     TIP3     OH2      OT      -0.834000       15.9994           0
      8825 WT1      2721     TIP3     H1       HT       0.417000        1.0080           0
      8826 WT1      2721     TIP3     H2       HT       0.417000        1.0080           0
      8827 WT1      2722     TIP3     OH2      OT      -0.834000       15.9994           0
      8828 WT1      2722     TIP3     H1       HT       0.417000        1.0080           0
      8829 WT1      2722     TIP3     H2       HT       0.417000        1.0080           0
      8830 WT1      2723     TIP3     OH2      OT      -0.834000       15.9994           0
      8831 WT1      2723     TIP3     H1       HT       0.417000        1.0080           0
      8832 WT1      2723     TIP3     H2       HT       0.417000        1.0080           0
      8833 WT1      2724     TIP3     OH2      OT      -0.834000       15.9994           0
      8834 WT1      2724     TIP3     H1       HT       0.417000        1.0080           0
      8835 WT1      2724     TIP3     H2       HT       0.417000        1.0080           0
      8836 WT1      2725     TIP3     OH2      OT      -0.834000       15.9994           0
      8837 WT1      2725     TIP3     H1       HT       0.417000        1.0080           0
      8838 WT1      2725     TIP3     H2       HT       0.417000        1.0080           0
      8839 WT1      2726     TIP3     OH2      OT      -0.834000       15.9994           0
      8840 WT1      2726     TIP3     H1       HT       0.417000        1.0080           0
      8841 WT1      2726     TIP3     H2       HT       0.417000        1.0080           0
      8842 WT1      2727     TIP3     OH2      OT      -0.834000       15.9994           0
      8843 WT1      2727     TIP3     H1       HT       0.417000        1.0080           0
      8844 WT1      2727     TIP3     H2       HT       0.417000        1.0080           0
      8845 WT1      2728     TIP3     OH2      OT      -0.834000       15.9994           0
      8846 WT1      2728     TIP3     H1       HT       0.417000        1.0080           0
      8847 WT1      2728     TIP3     H2       HT       0.417000        1.0080           0
      8848 WT1      2729     TIP3     OH2      OT      -0.834000       15.9994           0
      8849 WT1      2729     TIP3     H1       HT       0.417000        1.0080           0
      8850 WT1      2729     TIP3     H2       HT       0.417000        1.0080           0
      8851 WT1      2730     TIP3     OH2      OT      -0.834000       15.9994           0
      8852 WT1      2730     TIP3     H1       HT       0.417000        1.0080           0
      8853 WT1      2730     TIP3     H2       HT       0.417000        1.0080           0
      8854 WT1      2731     TIP3     OH2      OT      -0.834000       15.9994           0
      8855 WT1      2731     TIP3     H1       HT       0.417000        1.0080           0
      8856 WT1      2731     TIP3     H2       HT       0.417000        1.0080           0
      8857 WT1      2732     TIP3     OH2      OT      -0.834000       15.9994           0
      8858 WT1      2732     TIP3     H1       HT       0.417000        1.0080           0
      8859 WT1      2732     TIP3     H2       HT       0.417000        1.0080           0
      8860 WT1      2733     TIP3     OH2      OT      -0.834000       15.9994           0
      8861 WT1      2733     TIP3     H1       HT       0.417000        1.0080           0
      8862 WT1      2733     TIP3     H2       HT       0.417000        1.0080           0
      8863 WT1      2734     TIP3     OH2      OT      -0.834000       15.9994           0
      8864 WT1      2734     TIP3     H1       HT       0.417000        1.0080           0
      8865 WT1      2734     TIP3     H2       HT       0.417000        1.0080           0
      8866 WT1      2735     TIP3     OH2      OT      -0.834000       15.9994           0
      8867 WT1      2735     TIP3     H1       HT       0.417000        1.0080           0
      8868 WT1      2735     TIP3     H2       HT       0.417000        1.0080           0
      8869 WT1      2736     TIP3     OH2      OT      -0.834000       15.9994           0
      8870 WT1      2736     TIP3     H1       HT       0.417000        1.0080           0
      8871 WT1      2736     TIP3     H2       HT       0.417000        1.0080           0
      8872 WT1      2737     TIP3     OH2      OT      -0.834000       15.9994           0
      8873 WT1      2737     TIP3     H1       HT       0.417000        1.0080           0
      8874 WT1      2737     TIP3     H2       HT       0.417000        1.0080           0
      8875 WT1      2738     TIP3     OH2      OT      -0.834000       15.9994           0
      8876 WT1      2738     TIP3     H1       HT       0.417000        1.0080           0
      8877 WT1      2738     TIP3     H2       HT       0.417000        1.0080           0
      8878 WT1      2739     TIP3     OH2      OT      -0.834000       15.9994           0
      8879 WT1      2739     TIP3     H1       HT       0.417000        1.0080           0
      8880 WT1      2739     TIP3     H2       HT       0.417000        1.0080           0
      8881 WT1      2740     TIP3     OH2      OT      -0.834000       15.9994           0
      8882 WT1      2740     TIP3     H1       HT       0.417000        1.0080           0
      8883 WT1      2740     TIP3     H2       HT       0.417000        1.0080           0
      8884 WT1      2741     TIP3     OH2      OT      -0.834000       15.9994           0
      8885 WT1      2741     TIP3     H1       HT       0.417000        1.0080           0
      8886 WT1      2741     TIP3     H2       HT       0.417000        1.0080           0
      8887 WT1      2742     TIP3     OH2      OT      -0.834000       15.9994           0
      8888 WT1      2742     TIP3     H1       HT       0.417000        1.0080           0
      8889 WT1      2742     TIP3     H2       HT       0.417000        1.0080           0
      8890 WT1      2743     TIP3     OH2      OT      -0.834000       15.9994           0
      8891 WT1      2743     TIP3     H1       HT       0.417000        1.0080           0
      8892 WT1      2743     TIP3     H2       HT       0.417000        1.0080           0
      8893 WT1      2744     TIP3     OH2      OT      -0.834000       15.9994           0
      8894 WT1      2744     TIP3     H1       HT       0.417000        1.0080           0
      8895 WT1      2744     TIP3     H2       HT       0.417000        1.0080           0
      8896 WT1      2745     TIP3     OH2      OT      -0.834000       15.9994           0
      8897 WT1      2745     TIP3     H1       HT       0.417000        1.0080           0
      8898 WT1      2745     TIP3     H2       HT       0.417000        1.0080           0
      8899 WT1      2746     TIP3     OH2      OT      -0.834000       15.9994           0
      8900 WT1      2746     TIP3     H1       HT       0.417000        1.0080           0
      8901 WT1      2746     TIP3     H2       HT       0.417000        1.0080           0
      8902 WT1      2747     TIP3     OH2      OT      -0.834000       15.9994           0
      8903 WT1      2747     TIP3     H1       HT       0.417000        1.0080           0
      8904 WT1      2747     TIP3     H2       HT       0.417000        1.0080           0
      8905 WT1      2748     TIP3     OH2      OT      -0.834000       15.9994           0
      8906 WT1      2748     TIP3     H1       HT       0.417000        1.0080           0
      8907 WT1      2748     TIP3     H2       HT       0.417000        1.0080           0
      8908 WT1      2749     TIP3     OH2      OT      -0.834000       15.9994           0
      8909 WT1      2749     TIP3     H1       HT       0.417000        1.0080           0
      8910 WT1      2749     TIP3     H2       HT       0.417000        1.0080           0
      8911 WT1      2750     TIP3     OH2      OT      -0.834000       15.9994           0
      8912 WT1      2750     TIP3     H1       HT       0.417000        1.0080           0
      8913 WT1      2750     TIP3     H2       HT       0.417000        1.0080           0
      8914 WT1      2752     TIP3     OH2      OT      -0.834000       15.9994           0
      8915 WT1      2752     TIP3     H1       HT       0.417000        1.0080           0
      8916 WT1      2752     TIP3     H2       HT       0.417000        1.0080           0
      8917 WT1      2753     TIP3     OH2      OT      -0.834000       15.9994           0
      8918 WT1      2753     TIP3     H1       HT       0.417000        1.0080           0
      8919 WT1      2753     TIP3     H2       HT       0.417000        1.0080           0
      8920 WT1      2754     TIP3     OH2      OT      -0.834000       15.9994           0
      8921 WT1      2754     TIP3     H1       HT       0.417000        1.0080           0
      8922 WT1      2754     TIP3     H2       HT       0.417000        1.0080           0
      8923 WT1      2755     TIP3     OH2      OT      -0.834000       15.9994           0
      8924 WT1      2755     TIP3     H1       HT       0.417000        1.0080           0
      8925 WT1      2755     TIP3     H2       HT       0.417000        1.0080           0
      8926 WT1      2756     TIP3     OH2      OT      -0.834000       15.9994           0
      8927 WT1      2756     TIP3     H1       HT       0.417000        1.0080           0
      8928 WT1      2756     TIP3     H2       HT       0.417000        1.0080           0
      8929 WT1      2757     TIP3     OH2      OT      -0.834000       15.9994           0
      8930 WT1      2757     TIP3     H1       HT       0.417000        1.0080           0
      8931 WT1      2757     TIP3     H2       HT       0.417000        1.0080           0
      8932 WT1      2758     TIP3     OH2      OT      -0.834000       15.9994           0
      8933 WT1      2758     TIP3     H1       HT       0.417000        1.0080           0
      8934 WT1      2758     TIP3     H2       HT       0.417000        1.0080           0
      8935 WT1      2760     TIP3     OH2      OT      -0.834000       15.9994           0
      8936 WT1      2760     TIP3     H1       HT       0.417000        1.0080           0
      8937 WT1      2760     TIP3     H2       HT       0.417000        1.0080           0
      8938 WT1      2761     TIP3     OH2      OT      -0.834000       15.9994           0
      8939 WT1      2761     TIP3     H1       HT       0.417000        1.0080           0
      8940 WT1      2761     TIP3     H2       HT       0.417000        1.0080           0
      8941 WT1      2762     TIP3     OH2      OT      -0.834000       15.9994           0
      8942 WT1      2762     TIP3     H1       HT       0.417000        1.0080           0
      8943 WT1      2762     TIP3     H2       HT       0.417000        1.0080           0
      8944 WT1      2763     TIP3     OH2      OT      -0.834000       15.9994           0
      8945 WT1      2763     TIP3     H1       HT       0.417000        1.0080           0
      8946 WT1      2763     TIP3     H2       HT       0.417000        1.0080           0
      8947 WT1      2764     TIP3     OH2      OT      -0.834000       15.9994           0
      8948 WT1      2764     TIP3     H1       HT       0.417000        1.0080           0
      8949 WT1      2764     TIP3     H2       HT       0.417000        1.0080           0
      8950 WT1      2765     TIP3     OH2      OT      -0.834000       15.9994           0
      8951 WT1      2765     TIP3     H1       HT       0.417000        1.0080           0
      8952 WT1      2765     TIP3     H2       HT       0.417000        1.0080           0
      8953 WT1      2766     TIP3     OH2      OT      -0.834000       15.9994           0
      8954 WT1      2766     TIP3     H1       HT       0.417000        1.0080           0
      8955 WT1      2766     TIP3     H2       HT       0.417000        1.0080           0
      8956 WT1      2767     TIP3     OH2      OT      -0.834000       15.9994           0
      8957 WT1      2767     TIP3     H1       HT       0.417000        1.0080           0
      8958 WT1      2767     TIP3     H2       HT       0.417000        1.0080           0
      8959 WT1      2768     TIP3     OH2      OT      -0.834000       15.9994           0
      8960 WT1      2768     TIP3     H1       HT       0.417000        1.0080           0
      8961 WT1      2768     TIP3     H2       HT       0.417000        1.0080           0
      8962 WT1      2769     TIP3     OH2      OT      -0.834000       15.9994           0
      8963 WT1      2769     TIP3     H1       HT       0.417000        1.0080           0
      8964 WT1      2769     TIP3     H2       HT       0.417000        1.0080           0
      8965 WT1      2770     TIP3     OH2      OT      -0.834000       15.9994           0
      8966 WT1      2770     TIP3     H1       HT       0.417000        1.0080           0
      8967 WT1      2770     TIP3     H2       HT       0.417000        1.0080           0
      8968 WT1      2771     TIP3     OH2      OT      -0.834000       15.9994           0
      8969 WT1      2771     TIP3     H1       HT       0.417000        1.0080           0
      8970 WT1      2771     TIP3     H2       HT       0.417000        1.0080           0
      8971 WT1      2772     TIP3     OH2      OT      -0.834000       15.9994           0
      8972 WT1      2772     TIP3     H1       HT       0.417000        1.0080           0
      8973 WT1      2772     TIP3     H2       HT       0.417000        1.0080           0
      8974 WT1      2774     TIP3     OH2      OT      -0.834000       15.9994           0
      8975 WT1      2774     TIP3     H1       HT       0.417000        1.0080           0
      8976 WT1      2774     TIP3     H2       HT       0.417000        1.0080           0
      8977 WT1      2775     TIP3     OH2      OT      -0.834000       15.9994           0
      8978 WT1      2775     TIP3     H1       HT       0.417000        1.0080           0
      8979 WT1      2775     TIP3     H2       HT       0.417000        1.0080           0
      8980 WT1      2776     TIP3     OH2      OT      -0.834000       15.9994           0
      8981 WT1      2776     TIP3     H1       HT       0.417000        1.0080           0
      8982 WT1      2776     TIP3     H2       HT       0.417000        1.0080           0
      8983 WT1      2777     TIP3     OH2      OT      -0.834000       15.9994           0
      8984 WT1      2777     TIP3     H1       HT       0.417000        1.0080           0
      8985 WT1      2777     TIP3     H2       HT       0.417000        1.0080           0
      8986 WT1      2778     TIP3     OH2      OT      -0.834000       15.9994           0
      8987 WT1      2778     TIP3     H1       HT       0.417000        1.0080           0
      8988 WT1      2778     TIP3     H2       HT       0.417000        1.0080           0
      8989 WT1      2779     TIP3     OH2      OT      -0.834000       15.9994           0
      8990 WT1      2779     TIP3     H1       HT       0.417000        1.0080           0
      8991 WT1      2779     TIP3     H2       HT       0.417000        1.0080           0
      8992 WT1      2780     TIP3     OH2      OT      -0.834000       15.9994           0
      8993 WT1      2780     TIP3     H1       HT       0.417000        1.0080           0
      8994 WT1      2780     TIP3     H2       HT       0.417000        1.0080           0
      8995 WT1      2781     TIP3     OH2      OT      -0.834000       15.9994           0
      8996 WT1      2781     TIP3     H1       HT       0.417000        1.0080           0
      8997 WT1      2781     TIP3     H2       HT       0.417000        1.0080           0
      8998 WT1      2782     TIP3     OH2      OT      -0.834000       15.9994           0
      8999 WT1      2782     TIP3     H1       HT       0.417000        1.0080           0
      9000 WT1      2782     TIP3     H2       HT       0.417000        1.0080           0
      9001 WT1      2783     TIP3     OH2      OT      -0.834000       15.9994           0
      9002 WT1      2783     TIP3     H1       HT       0.417000        1.0080           0
      9003 WT1      2783     TIP3     H2       HT       0.417000        1.0080           0
      9004 WT1      2784     TIP3     OH2      OT      -0.834000       15.9994           0
      9005 WT1      2784     TIP3     H1       HT       0.417000        1.0080           0
      9006 WT1      2784     TIP3     H2       HT       0.417000        1.0080           0
      9007 WT1      2785     TIP3     OH2      OT      -0.834000       15.9994           0
      9008 WT1      2785     TIP3     H1       HT       0.417000        1.0080           0
      9009 WT1      2785     TIP3     H2       HT       0.417000        1.0080           0
      9010 WT1      2786     TIP3     OH2      OT      -0.834000       15.9994           0
      9011 WT1      2786     TIP3     H1       HT       0.417000        1.0080           0
      9012 WT1      2786     TIP3     H2       HT       0.417000        1.0080           0
      9013 WT1      2787     TIP3     OH2      OT      -0.834000       15.9994           0
      9014 WT1      2787     TIP3     H1       HT       0.417000        1.0080           0
      9015 WT1      2787     TIP3     H2       HT       0.417000        1.0080           0
      9016 WT1      2788     TIP3     OH2      OT      -0.834000       15.9994           0
      9017 WT1      2788     TIP3     H1       HT       0.417000        1.0080           0
      9018 WT1      2788     TIP3     H2       HT       0.417000        1.0080           0
      9019 WT1      2789     TIP3     OH2      OT      -0.834000       15.9994           0
      9020 WT1      2789     TIP3     H1       HT       0.417000        1.0080           0
      9021 WT1      2789     TIP3     H2       HT       0.417000        1.0080           0
      9022 WT1      2790     TIP3     OH2      OT      -0.834000       15.9994           0
      9023 WT1      2790     TIP3     H1       HT       0.417000        1.0080           0
      9024 WT1      2790     TIP3     H2       HT       0.417000        1.0080           0
      9025 WT1      2791     TIP3     OH2      OT      -0.834000       15.9994           0
      9026 WT1      2791     TIP3     H1       HT       0.417000        1.0080           0
      9027 WT1      2791     TIP3     H2       HT       0.417000        1.0080           0
      9028 WT1      2792     TIP3     OH2      OT      -0.834000       15.9994           0
      9029 WT1      2792     TIP3     H1       HT       0.417000        1.0080           0
      9030 WT1      2792     TIP3     H2       HT       0.417000        1.0080           0
      9031 WT1      2794     TIP3     OH2      OT      -0.834000       15.9994           0
      9032 WT1      2794     TIP3     H1       HT       0.417000        1.0080           0
      9033 WT1      2794     TIP3     H2       HT       0.417000        1.0080           0
      9034 WT1      2795     TIP3     OH2      OT      -0.834000       15.9994           0
      9035 WT1      2795     TIP3     H1       HT       0.417000        1.0080           0
      9036 WT1      2795     TIP3     H2       HT       0.417000        1.0080           0
      9037 WT1      2796     TIP3     OH2      OT      -0.834000       15.9994           0
      9038 WT1      2796     TIP3     H1       HT       0.417000        1.0080           0
      9039 WT1      2796     TIP3     H2       HT       0.417000        1.0080           0
      9040 WT1      2797     TIP3     OH2      OT      -0.834000       15.9994           0
      9041 WT1      2797     TIP3     H1       HT       0.417000        1.0080           0
      9042 WT1      2797     TIP3     H2       HT       0.417000        1.0080           0
      9043 WT1      2798     TIP3     OH2      OT      -0.834000       15.9994           0
      9044 WT1      2798     TIP3     H1       HT       0.417000        1.0080           0
      9045 WT1      2798     TIP3     H2       HT       0.417000        1.0080           0
      9046 WT1      2799     TIP3     OH2      OT      -0.834000       15.9994           0
      9047 WT1      2799     TIP3     H1       HT       0.417000        1.0080           0
      9048 WT1      2799     TIP3     H2       HT       0.417000        1.0080           0
      9049 WT1      2800     TIP3     OH2      OT      -0.834000       15.9994           0
      9050 WT1      2800     TIP3     H1       HT       0.417000        1.0080           0
      9051 WT1      2800     TIP3     H2       HT       0.417000        1.0080           0
      9052 WT1      2801     TIP3     OH2      OT      -0.834000       15.9994           0
      9053 WT1      2801     TIP3     H1       HT       0.417000        1.0080           0
      9054 WT1      2801     TIP3     H2       HT       0.417000        1.0080           0
      9055 WT1      2802     TIP3     OH2      OT      -0.834000       15.9994           0
      9056 WT1      2802     TIP3     H1       HT       0.417000        1.0080           0
      9057 WT1      2802     TIP3     H2       HT       0.417000        1.0080           0
      9058 WT1      2803     TIP3     OH2      OT      -0.834000       15.9994           0
      9059 WT1      2803     TIP3     H1       HT       0.417000        1.0080           0
      9060 WT1      2803     TIP3     H2       HT       0.417000        1.0080           0
      9061 WT1      2804     TIP3     OH2      OT      -0.834000       15.9994           0
      9062 WT1      2804     TIP3     H1       HT       0.417000        1.0080           0
      9063 WT1      2804     TIP3     H2       HT       0.417000        1.0080           0
      9064 WT1      2805     TIP3     OH2      OT      -0.834000       15.9994           0
      9065 WT1      2805     TIP3     H1       HT       0.417000        1.0080           0
      9066 WT1      2805     TIP3     H2       HT       0.417000        1.0080           0
      9067 WT1      2806     TIP3     OH2      OT      -0.834000       15.9994           0
      9068 WT1      2806     TIP3     H1       HT       0.417000        1.0080           0
      9069 WT1      2806     TIP3     H2       HT       0.417000        1.0080           0
      9070 WT1      2807     TIP3     OH2      OT      -0.834000       15.9994           0
      9071 WT1      2807     TIP3     H1       HT       0.417000        1.0080           0
      9072 WT1      2807     TIP3     H2       HT       0.417000        1.0080           0
      9073 WT1      2808     TIP3     OH2      OT      -0.834000       15.9994           0
      9074 WT1      2808     TIP3     H1       HT       0.417000        1.0080           0
      9075 WT1      2808     TIP3     H2       HT       0.417000        1.0080           0
      9076 WT1      2809     TIP3     OH2      OT      -0.834000       15.9994           0
      9077 WT1      2809     TIP3     H1       HT       0.417000        1.0080           0
      9078 WT1      2809     TIP3     H2       HT       0.417000        1.0080           0
      9079 WT1      2810     TIP3     OH2      OT      -0.834000       15.9994           0
      9080 WT1      2810     TIP3     H1       HT       0.417000        1.0080           0
      9081 WT1      2810     TIP3     H2       HT       0.417000        1.0080           0
      9082 WT1      2811     TIP3     OH2      OT      -0.834000       15.9994           0
      9083 WT1      2811     TIP3     H1       HT       0.417000        1.0080           0
      9084 WT1      2811     TIP3     H2       HT       0.417000        1.0080           0
      9085 WT1      2812     TIP3     OH2      OT      -0.834000       15.9994           0
      9086 WT1      2812     TIP3     H1       HT       0.417000        1.0080           0
      9087 WT1      2812     TIP3     H2       HT       0.417000        1.0080           0
      9088 WT1      2813     TIP3     OH2      OT      -0.834000       15.9994           0
      9089 WT1      2813     TIP3     H1       HT       0.417000        1.0080           0
      9090 WT1      2813     TIP3     H2       HT       0.417000        1.0080           0
      9091 WT1      2814     TIP3     OH2      OT      -0.834000       15.9994           0
      9092 WT1      2814     TIP3     H1       HT       0.417000        1.0080           0
      9093 WT1      2814     TIP3     H2       HT       0.417000        1.0080           0
      9094 WT1      2815     TIP3     OH2      OT      -0.834000       15.9994           0
      9095 WT1      2815     TIP3     H1       HT       0.417000        1.0080           0
      9096 WT1      2815     TIP3     H2       HT       0.417000        1.0080           0
      9097 WT1      2816     TIP3     OH2      OT      -0.834000       15.9994           0
      9098 WT1      2816     TIP3     H1       HT       0.417000        1.0080           0
      9099 WT1      2816     TIP3     H2       HT       0.417000        1.0080           0
      9100 WT1      2817     TIP3     OH2      OT      -0.834000       15.9994           0
      9101 WT1      2817     TIP3     H1       HT       0.417000        1.0080           0
      9102 WT1      2817     TIP3     H2       HT       0.417000        1.0080           0
      9103 WT1      2818     TIP3     OH2      OT      -0.834000       15.9994           0
      9104 WT1      2818     TIP3     H1       HT       0.417000        1.0080           0
      9105 WT1      2818     TIP3     H2       HT       0.417000        1.0080           0
      9106 WT1      2819     TIP3     OH2      OT      -0.834000       15.9994           0
      9107 WT1      2819     TIP3     H1       HT       0.417000        1.0080           0
      9108 WT1      2819     TIP3     H2       HT       0.417000        1.0080           0
      9109 WT1      2820     TIP3     OH2      OT      -0.834000       15.9994           0
      9110 WT1      2820     TIP3     H1       HT       0.417000        1.0080           0
      9111 WT1      2820     TIP3     H2       HT       0.417000        1.0080           0
      9112 WT1      2821     TIP3     OH2      OT      -0.834000       15.9994           0
      9113 WT1      2821     TIP3     H1       HT       0.417000        1.0080           0
      9114 WT1      2821     TIP3     H2       HT       0.417000        1.0080           0
      9115 WT1      2822     TIP3     OH2      OT      -0.834000       15.9994           0
      9116 WT1      2822     TIP3     H1       HT       0.417000        1.0080           0
      9117 WT1      2822     TIP3     H2       HT       0.417000        1.0080           0
      9118 WT1      2823     TIP3     OH2      OT      -0.834000       15.9994           0
      9119 WT1      2823     TIP3     H1       HT       0.417000        1.0080           0
      9120 WT1      2823     TIP3     H2       HT       0.417000        1.0080           0
      9121 WT1      2824     TIP3     OH2      OT      -0.834000       15.9994           0
      9122 WT1      2824     TIP3     H1       HT       0.417000        1.0080           0
      9123 WT1      2824     TIP3     H2       HT       0.417000        1.0080           0
      9124 WT1      2825     TIP3     OH2      OT      -0.834000       15.9994           0
      9125 WT1      2825     TIP3     H1       HT       0.417000        1.0080           0
      9126 WT1      2825     TIP3     H2       HT       0.417000        1.0080           0
      9127 WT1      2826     TIP3     OH2      OT      -0.834000       15.9994           0
      9128 WT1      2826     TIP3     H1       HT       0.417000        1.0080           0
      9129 WT1      2826     TIP3     H2       HT       0.417000        1.0080           0
      9130 WT1      2827     TIP3     OH2      OT      -0.834000       15.9994           0
      9131 WT1      2827     TIP3     H1       HT       0.417000        1.0080           0
      9132 WT1      2827     TIP3     H2       HT       0.417000        1.0080           0
      9133 WT1      2828     TIP3     OH2      OT      -0.834000       15.9994           0
      9134 WT1      2828     TIP3     H1       HT       0.417000        1.0080           0
      9135 WT1      2828     TIP3     H2       HT       0.417000        1.0080           0
      9136 WT1      2829     TIP3     OH2      OT      -0.834000       15.9994           0
      9137 WT1      2829     TIP3     H1       HT       0.417000        1.0080           0
      9138 WT1      2829     TIP3     H2       HT       0.417000        1.0080           0
      9139 WT1      2830     TIP3     OH2      OT      -0.834000       15.9994           0
      9140 WT1      2830     TIP3     H1       HT       0.417000        1.0080           0
      9141 WT1      2830     TIP3     H2       HT       0.417000        1.0080           0
      9142 WT1      2831     TIP3     OH2      OT      -0.834000       15.9994           0
      9143 WT1      2831     TIP3     H1       HT       0.417000        1.0080           0
      9144 WT1      2831     TIP3     H2       HT       0.417000        1.0080           0
      9145 WT1      2832     TIP3     OH2      OT      -0.834000       15.9994           0
      9146 WT1      2832     TIP3     H1       HT       0.417000        1.0080           0
      9147 WT1      2832     TIP3     H2       HT       0.417000        1.0080           0
      9148 WT1      2833     TIP3     OH2      OT      -0.834000       15.9994           0
      9149 WT1      2833     TIP3     H1       HT       0.417000        1.0080           0
      9150 WT1      2833     TIP3     H2       HT       0.417000        1.0080           0
      9151 WT1      2834     TIP3     OH2      OT      -0.834000       15.9994           0
      9152 WT1      2834     TIP3     H1       HT       0.417000        1.0080           0
      9153 WT1      2834     TIP3     H2       HT       0.417000        1.0080           0
      9154 WT1      2835     TIP3     OH2      OT      -0.834000       15.9994           0
      9155 WT1      2835     TIP3     H1       HT       0.417000        1.0080           0
      9156 WT1      2835     TIP3     H2       HT       0.417000        1.0080           0
      9157 WT1      2836     TIP3     OH2      OT      -0.834000       15.9994           0
      9158 WT1      2836     TIP3     H1       HT       0.417000        1.0080           0
      9159 WT1      2836     TIP3     H2       HT       0.417000        1.0080           0
      9160 WT1      2837     TIP3     OH2      OT      -0.834000       15.9994           0
      9161 WT1      2837     TIP3     H1       HT       0.417000        1.0080           0
      9162 WT1      2837     TIP3     H2       HT       0.417000        1.0080           0
      9163 WT1      2838     TIP3     OH2      OT      -0.834000       15.9994           0
      9164 WT1      2838     TIP3     H1       HT       0.417000        1.0080           0
      9165 WT1      2838     TIP3     H2       HT       0.417000        1.0080           0
      9166 WT1      2839     TIP3     OH2      OT      -0.834000       15.9994           0
      9167 WT1      2839     TIP3     H1       HT       0.417000        1.0080           0
      9168 WT1      2839     TIP3     H2       HT       0.417000        1.0080           0
      9169 WT1      2840     TIP3     OH2      OT      -0.834000       15.9994           0
      9170 WT1      2840     TIP3     H1       HT       0.417000        1.0080           0
      9171 WT1      2840     TIP3     H2       HT       0.417000        1.0080           0
      9172 WT1      2841     TIP3     OH2      OT      -0.834000       15.9994           0
      9173 WT1      2841     TIP3     H1       HT       0.417000        1.0080           0
      9174 WT1      2841     TIP3     H2       HT       0.417000        1.0080           0
      9175 WT1      2842     TIP3     OH2      OT      -0.834000       15.9994           0
      9176 WT1      2842     TIP3     H1       HT       0.417000        1.0080           0
      9177 WT1      2842     TIP3     H2       HT       0.417000        1.0080           0
      9178 WT1      2843     TIP3     OH2      OT      -0.834000       15.9994           0
      9179 WT1      2843     TIP3     H1       HT       0.417000        1.0080           0
      9180 WT1      2843     TIP3     H2       HT       0.417000        1.0080           0
      9181 WT1      2844     TIP3     OH2      OT      -0.834000       15.9994           0
      9182 WT1      2844     TIP3     H1       HT       0.417000        1.0080           0
      9183 WT1      2844     TIP3     H2       HT       0.417000        1.0080           0
      9184 WT1      2845     TIP3     OH2      OT      -0.834000       15.9994           0
      9185 WT1      2845     TIP3     H1       HT       0.417000        1.0080           0
      9186 WT1      2845     TIP3     H2       HT       0.417000        1.0080           0
      9187 WT1      2846     TIP3     OH2      OT      -0.834000       15.9994           0
      9188 WT1      2846     TIP3     H1       HT       0.417000        1.0080           0
      9189 WT1      2846     TIP3     H2       HT       0.417000        1.0080           0
      9190 WT1      2847     TIP3     OH2      OT      -0.834000       15.9994           0
      9191 WT1      2847     TIP3     H1       HT       0.417000        1.0080           0
      9192 WT1      2847     TIP3     H2       HT       0.417000        1.0080           0
      9193 WT1      2848     TIP3     OH2      OT      -0.834000       15.9994           0
      9194 WT1      2848     TIP3     H1       HT       0.417000        1.0080           0
      9195 WT1      2848     TIP3     H2       HT       0.417000        1.0080           0
      9196 WT1      2849     TIP3     OH2      OT      -0.834000       15.9994           0
      9197 WT1      2849     TIP3     H1       HT       0.417000        1.0080           0
      9198 WT1      2849     TIP3     H2       HT       0.417000        1.0080           0
      9199 WT1      2850     TIP3     OH2      OT      -0.834000       15.9994           0
      9200 WT1      2850     TIP3     H1       HT       0.417000        1.0080           0
      9201 WT1      2850     TIP3     H2       HT       0.417000        1.0080           0
      9202 WT1      2851     TIP3     OH2      OT      -0.834000       15.9994           0
      9203 WT1      2851     TIP3     H1       HT       0.417000        1.0080           0
      9204 WT1      2851     TIP3     H2       HT       0.417000        1.0080           0
      9205 WT1      2852     TIP3     OH2      OT      -0.834000       15.9994           0
      9206 WT1      2852     TIP3     H1       HT       0.417000        1.0080           0
      9207 WT1      2852     TIP3     H2       HT       0.417000        1.0080           0
      9208 WT1      2853     TIP3     OH2      OT      -0.834000       15.9994           0
      9209 WT1      2853     TIP3     H1       HT       0.417000        1.0080           0
      9210 WT1      2853     TIP3     H2       HT       0.417000        1.0080           0
      9211 WT1      2854     TIP3     OH2      OT      -0.834000       15.9994           0
      9212 WT1      2854     TIP3     H1       HT       0.417000        1.0080           0
      9213 WT1      2854     TIP3     H2       HT       0.417000        1.0080           0
      9214 WT1      2855     TIP3     OH2      OT      -0.834000       15.9994           0
      9215 WT1      2855     TIP3     H1       HT       0.417000        1.0080           0
      9216 WT1      2855     TIP3     H2       HT       0.417000        1.0080           0
      9217 WT1      2856     TIP3     OH2      OT      -0.834000       15.9994           0
      9218 WT1      2856     TIP3     H1       HT       0.417000        1.0080           0
      9219 WT1      2856     TIP3     H2       HT       0.417000        1.0080           0
      9220 WT1      2857     TIP3     OH2      OT      -0.834000       15.9994           0
      9221 WT1      2857     TIP3     H1       HT       0.417000        1.0080           0
      9222 WT1      2857     TIP3     H2       HT       0.417000        1.0080           0
      9223 WT1      2858     TIP3     OH2      OT      -0.834000       15.9994           0
      9224 WT1      2858     TIP3     H1       HT       0.417000        1.0080           0
      9225 WT1      2858     TIP3     H2       HT       0.417000        1.0080           0
      9226 WT1      2859     TIP3     OH2      OT      -0.834000       15.9994           0
      9227 WT1      2859     TIP3     H1       HT       0.417000        1.0080           0
      9228 WT1      2859     TIP3     H2       HT       0.417000        1.0080           0
      9229 WT1      2860     TIP3     OH2      OT      -0.834000       15.9994           0
      9230 WT1      2860     TIP3     H1       HT       0.417000        1.0080           0
      9231 WT1      2860     TIP3     H2       HT       0.417000        1.0080           0
      9232 WT1      2861     TIP3     OH2      OT      -0.834000       15.9994           0
      9233 WT1      2861     TIP3     H1       HT       0.417000        1.0080           0
      9234 WT1      2861     TIP3     H2       HT       0.417000        1.0080           0
      9235 WT1      2862     TIP3     OH2      OT      -0.834000       15.9994           0
      9236 WT1      2862     TIP3     H1       HT       0.417000        1.0080           0
      9237 WT1      2862     TIP3     H2       HT       0.417000        1.0080           0
      9238 WT1      2863     TIP3     OH2      OT      -0.834000       15.9994           0
      9239 WT1      2863     TIP3     H1       HT       0.417000        1.0080           0
      9240 WT1      2863     TIP3     H2       HT       0.417000        1.0080           0
      9241 WT1      2864     TIP3     OH2      OT      -0.834000       15.9994           0
      9242 WT1      2864     TIP3     H1       HT       0.417000        1.0080           0
      9243 WT1      2864     TIP3     H2       HT       0.417000        1.0080           0
      9244 WT1      2865     TIP3     OH2      OT      -0.834000       15.9994           0
      9245 WT1      2865     TIP3     H1       HT       0.417000        1.0080           0
      9246 WT1      2865     TIP3     H2       HT       0.417000        1.0080           0
      9247 WT1      2867     TIP3     OH2      OT      -0.834000       15.9994           0
      9248 WT1      2867     TIP3     H1       HT       0.417000        1.0080           0
      9249 WT1      2867     TIP3     H2       HT       0.417000        1.0080           0
      9250 WT1      2868     TIP3     OH2      OT      -0.834000       15.9994           0
      9251 WT1      2868     TIP3     H1       HT       0.417000        1.0080           0
      9252 WT1      2868     TIP3     H2       HT       0.417000        1.0080           0
      9253 WT1      2869     TIP3     OH2      OT      -0.834000       15.9994           0
      9254 WT1      2869     TIP3     H1       HT       0.417000        1.0080           0
      9255 WT1      2869     TIP3     H2       HT       0.417000        1.0080           0
      9256 WT1      2870     TIP3     OH2      OT      -0.834000       15.9994           0
      9257 WT1      2870     TIP3     H1       HT       0.417000        1.0080           0
      9258 WT1      2870     TIP3     H2       HT       0.417000        1.0080           0
      9259 WT1      2872     TIP3     OH2      OT      -0.834000       15.9994           0
      9260 WT1      2872     TIP3     H1       HT       0.417000        1.0080           0
      9261 WT1      2872     TIP3     H2       HT       0.417000        1.0080           0
      9262 WT1      2873     TIP3     OH2      OT      -0.834000       15.9994           0
      9263 WT1      2873     TIP3     H1       HT       0.417000        1.0080           0
      9264 WT1      2873     TIP3     H2       HT       0.417000        1.0080           0
      9265 WT1      2874     TIP3     OH2      OT      -0.834000       15.9994           0
      9266 WT1      2874     TIP3     H1       HT       0.417000        1.0080           0
      9267 WT1      2874     TIP3     H2       HT       0.417000        1.0080           0
      9268 WT1      2875     TIP3     OH2      OT      -0.834000       15.9994           0
      9269 WT1      2875     TIP3     H1       HT       0.417000        1.0080           0
      9270 WT1      2875     TIP3     H2       HT       0.417000        1.0080           0
      9271 WT1      2876     TIP3     OH2      OT      -0.834000       15.9994           0
      9272 WT1      2876     TIP3     H1       HT       0.417000        1.0080           0
      9273 WT1      2876     TIP3     H2       HT       0.417000        1.0080           0
      9274 WT1      2877     TIP3     OH2      OT      -0.834000       15.9994           0
      9275 WT1      2877     TIP3     H1       HT       0.417000        1.0080           0
      9276 WT1      2877     TIP3     H2       HT       0.417000        1.0080           0
      9277 WT1      2878     TIP3     OH2      OT      -0.834000       15.9994           0
      9278 WT1      2878     TIP3     H1       HT       0.417000        1.0080           0
      9279 WT1      2878     TIP3     H2       HT       0.417000        1.0080           0
      9280 WT1      2879     TIP3     OH2      OT      -0.834000       15.9994           0
      9281 WT1      2879     TIP3     H1       HT       0.417000        1.0080           0
      9282 WT1      2879     TIP3     H2       HT       0.417000        1.0080           0
      9283 WT1      2880     TIP3     OH2      OT      -0.834000       15.9994           0
      9284 WT1      2880     TIP3     H1       HT       0.417000        1.0080           0
      9285 WT1      2880     TIP3     H2       HT       0.417000        1.0080           0
      9286 WT1      2881     TIP3     OH2      OT      -0.834000       15.9994           0
      9287 WT1      2881     TIP3     H1       HT       0.417000        1.0080           0
      9288 WT1      2881     TIP3     H2       HT       0.417000        1.0080           0
      9289 WT1      2882     TIP3     OH2      OT      -0.834000       15.9994           0
      9290 WT1      2882     TIP3     H1       HT       0.417000        1.0080           0
      9291 WT1      2882     TIP3     H2       HT       0.417000        1.0080           0
      9292 WT1      2883     TIP3     OH2      OT      -0.834000       15.9994           0
      9293 WT1      2883     TIP3     H1       HT       0.417000        1.0080           0
      9294 WT1      2883     TIP3     H2       HT       0.417000        1.0080           0
      9295 WT1      2884     TIP3     OH2      OT      -0.834000       15.9994           0
      9296 WT1      2884     TIP3     H1       HT       0.417000        1.0080           0
      9297 WT1      2884     TIP3     H2       HT       0.417000        1.0080           0
      9298 WT1      2885     TIP3     OH2      OT      -0.834000       15.9994           0
      9299 WT1      2885     TIP3     H1       HT       0.417000        1.0080           0
      9300 WT1      2885     TIP3     H2       HT       0.417000        1.0080           0
      9301 WT1      2886     TIP3     OH2      OT      -0.834000       15.9994           0
      9302 WT1      2886     TIP3     H1       HT       0.417000        1.0080           0
      9303 WT1      2886     TIP3     H2       HT       0.417000        1.0080           0
      9304 WT1      2887     TIP3     OH2      OT      -0.834000       15.9994           0
      9305 WT1      2887     TIP3     H1       HT       0.417000        1.0080           0
      9306 WT1      2887     TIP3     H2       HT       0.417000        1.0080           0
      9307 WT1      2888     TIP3     OH2      OT      -0.834000       15.9994           0
      9308 WT1      2888     TIP3     H1       HT       0.417000        1.0080           0
      9309 WT1      2888     TIP3     H2       HT       0.417000        1.0080           0
      9310 WT1      2889     TIP3     OH2      OT      -0.834000       15.9994           0
      9311 WT1      2889     TIP3     H1       HT       0.417000        1.0080           0
      9312 WT1      2889     TIP3     H2       HT       0.417000        1.0080           0
      9313 WT1      2890     TIP3     OH2      OT      -0.834000       15.9994           0
      9314 WT1      2890     TIP3     H1       HT       0.417000        1.0080           0
      9315 WT1      2890     TIP3     H2       HT       0.417000        1.0080           0
      9316 WT1      2891     TIP3     OH2      OT      -0.834000       15.9994           0
      9317 WT1      2891     TIP3     H1       HT       0.417000        1.0080           0
      9318 WT1      2891     TIP3     H2       HT       0.417000        1.0080           0
      9319 WT1      2892     TIP3     OH2      OT      -0.834000       15.9994           0
      9320 WT1      2892     TIP3     H1       HT       0.417000        1.0080           0
      9321 WT1      2892     TIP3     H2       HT       0.417000        1.0080           0
      9322 WT1      2893     TIP3     OH2      OT      -0.834000       15.9994           0
      9323 WT1      2893     TIP3     H1       HT       0.417000        1.0080           0
      9324 WT1      2893     TIP3     H2       HT       0.417000        1.0080           0
      9325 WT1      2894     TIP3     OH2      OT      -0.834000       15.9994           0
      9326 WT1      2894     TIP3     H1       HT       0.417000        1.0080           0
      9327 WT1      2894     TIP3     H2       HT       0.417000        1.0080           0
      9328 WT1      2895     TIP3     OH2      OT      -0.834000       15.9994           0
      9329 WT1      2895     TIP3     H1       HT       0.417000        1.0080           0
      9330 WT1      2895     TIP3     H2       HT       0.417000        1.0080           0
      9331 WT1      2896     TIP3     OH2      OT      -0.834000       15.9994           0
      9332 WT1      2896     TIP3     H1       HT       0.417000        1.0080           0
      9333 WT1      2896     TIP3     H2       HT       0.417000        1.0080           0
      9334 WT1      2897     TIP3     OH2      OT      -0.834000       15.9994           0
      9335 WT1      2897     TIP3     H1       HT       0.417000        1.0080           0
      9336 WT1      2897     TIP3     H2       HT       0.417000        1.0080           0
      9337 WT1      2898     TIP3     OH2      OT      -0.834000       15.9994           0
      9338 WT1      2898     TIP3     H1       HT       0.417000        1.0080           0
      9339 WT1      2898     TIP3     H2       HT       0.417000        1.0080           0
      9340 WT1      2899     TIP3     OH2      OT      -0.834000       15.9994           0
      9341 WT1      2899     TIP3     H1       HT       0.417000        1.0080           0
      9342 WT1      2899     TIP3     H2       HT       0.417000        1.0080           0
      9343 WT1      2900     TIP3     OH2      OT      -0.834000       15.9994           0
      9344 WT1      2900     TIP3     H1       HT       0.417000        1.0080           0
      9345 WT1      2900     TIP3     H2       HT       0.417000        1.0080           0
      9346 WT1      2901     TIP3     OH2      OT      -0.834000       15.9994           0
      9347 WT1      2901     TIP3     H1       HT       0.417000        1.0080           0
      9348 WT1      2901     TIP3     H2       HT       0.417000        1.0080           0
      9349 WT1      2902     TIP3     OH2      OT      -0.834000       15.9994           0
      9350 WT1      2902     TIP3     H1       HT       0.417000        1.0080           0
      9351 WT1      2902     TIP3     H2       HT       0.417000        1.0080           0
      9352 WT1      2903     TIP3     OH2      OT      -0.834000       15.9994           0
      9353 WT1      2903     TIP3     H1       HT       0.417000        1.0080           0
      9354 WT1      2903     TIP3     H2       HT       0.417000        1.0080           0
      9355 WT1      2904     TIP3     OH2      OT      -0.834000       15.9994           0
      9356 WT1      2904     TIP3     H1       HT       0.417000        1.0080           0
      9357 WT1      2904     TIP3     H2       HT       0.417000        1.0080           0
      9358 WT1      2905     TIP3     OH2      OT      -0.834000       15.9994           0
      9359 WT1      2905     TIP3     H1       HT       0.417000        1.0080           0
      9360 WT1      2905     TIP3     H2       HT       0.417000        1.0080           0
      9361 WT1      2906     TIP3     OH2      OT      -0.834000       15.9994           0
      9362 WT1      2906     TIP3     H1       HT       0.417000        1.0080           0
      9363 WT1      2906     TIP3     H2       HT       0.417000        1.0080           0
      9364 WT1      2907     TIP3     OH2      OT      -0.834000       15.9994           0
      9365 WT1      2907     TIP3     H1       HT       0.417000        1.0080           0
      9366 WT1      2907     TIP3     H2       HT       0.417000        1.0080           0
      9367 WT1      2908     TIP3     OH2      OT      -0.834000       15.9994           0
      9368 WT1      2908     TIP3     H1       HT       0.417000        1.0080           0
      9369 WT1      2908     TIP3     H2       HT       0.417000        1.0080           0
      9370 WT1      2909     TIP3     OH2      OT      -0.834000       15.9994           0
      9371 WT1      2909     TIP3     H1       HT       0.417000        1.0080           0
      9372 WT1      2909     TIP3     H2       HT       0.417000        1.0080           0
      9373 WT1      2910     TIP3     OH2      OT      -0.834000       15.9994           0
      9374 WT1      2910     TIP3     H1       HT       0.417000        1.0080           0
      9375 WT1      2910     TIP3     H2       HT       0.417000        1.0080           0
      9376 WT1      2911     TIP3     OH2      OT      -0.834000       15.9994           0
      9377 WT1      2911     TIP3     H1       HT       0.417000        1.0080           0
      9378 WT1      2911     TIP3     H2       HT       0.417000        1.0080           0
      9379 WT1      2912     TIP3     OH2      OT      -0.834000       15.9994           0
      9380 WT1      2912     TIP3     H1       HT       0.417000        1.0080           0
      9381 WT1      2912     TIP3     H2       HT       0.417000        1.0080           0
      9382 WT1      2913     TIP3     OH2      OT      -0.834000       15.9994           0
      9383 WT1      2913     TIP3     H1       HT       0.417000        1.0080           0
      9384 WT1      2913     TIP3     H2       HT       0.417000        1.0080           0
      9385 WT1      2914     TIP3     OH2      OT      -0.834000       15.9994           0
      9386 WT1      2914     TIP3     H1       HT       0.417000        1.0080           0
      9387 WT1      2914     TIP3     H2       HT       0.417000        1.0080           0
      9388 WT1      2915     TIP3     OH2      OT      -0.834000       15.9994           0
      9389 WT1      2915     TIP3     H1       HT       0.417000        1.0080           0
      9390 WT1      2915     TIP3     H2       HT       0.417000        1.0080           0
      9391 WT1      2916     TIP3     OH2      OT      -0.834000       15.9994           0
      9392 WT1      2916     TIP3     H1       HT       0.417000        1.0080           0
      9393 WT1      2916     TIP3     H2       HT       0.417000        1.0080           0
      9394 WT1      2917     TIP3     OH2      OT      -0.834000       15.9994           0
      9395 WT1      2917     TIP3     H1       HT       0.417000        1.0080           0
      9396 WT1      2917     TIP3     H2       HT       0.417000        1.0080           0
      9397 WT1      2918     TIP3     OH2      OT      -0.834000       15.9994           0
      9398 WT1      2918     TIP3     H1       HT       0.417000        1.0080           0
      9399 WT1      2918     TIP3     H2       HT       0.417000        1.0080           0
      9400 WT1      2919     TIP3     OH2      OT      -0.834000       15.9994           0
      9401 WT1      2919     TIP3     H1       HT       0.417000        1.0080           0
      9402 WT1      2919     TIP3     H2       HT       0.417000        1.0080           0
      9403 WT1      2920     TIP3     OH2      OT      -0.834000       15.9994           0
      9404 WT1      2920     TIP3     H1       HT       0.417000        1.0080           0
      9405 WT1      2920     TIP3     H2       HT       0.417000        1.0080           0
      9406 WT1      2921     TIP3     OH2      OT      -0.834000       15.9994           0
      9407 WT1      2921     TIP3     H1       HT       0.417000        1.0080           0
      9408 WT1      2921     TIP3     H2       HT       0.417000        1.0080           0
      9409 WT1      2922     TIP3     OH2      OT      -0.834000       15.9994           0
      9410 WT1      2922     TIP3     H1       HT       0.417000        1.0080           0
      9411 WT1      2922     TIP3     H2       HT       0.417000        1.0080           0
      9412 WT1      2923     TIP3     OH2      OT      -0.834000       15.9994           0
      9413 WT1      2923     TIP3     H1       HT       0.417000        1.0080           0
      9414 WT1      2923     TIP3     H2       HT       0.417000        1.0080           0
      9415 WT1      2924     TIP3     OH2      OT      -0.834000       15.9994           0
      9416 WT1      2924     TIP3     H1       HT       0.417000        1.0080           0
      9417 WT1      2924     TIP3     H2       HT       0.417000        1.0080           0
      9418 WT1      2925     TIP3     OH2      OT      -0.834000       15.9994           0
      9419 WT1      2925     TIP3     H1       HT       0.417000        1.0080           0
      9420 WT1      2925     TIP3     H2       HT       0.417000        1.0080           0
      9421 WT1      2926     TIP3     OH2      OT      -0.834000       15.9994           0
      9422 WT1      2926     TIP3     H1       HT       0.417000        1.0080           0
      9423 WT1      2926     TIP3     H2       HT       0.417000        1.0080           0
      9424 WT1      2927     TIP3     OH2      OT      -0.834000       15.9994           0
      9425 WT1      2927     TIP3     H1       HT       0.417000        1.0080           0
      9426 WT1      2927     TIP3     H2       HT       0.417000        1.0080           0
      9427 WT1      2928     TIP3     OH2      OT      -0.834000       15.9994           0
      9428 WT1      2928     TIP3     H1       HT       0.417000        1.0080           0
      9429 WT1      2928     TIP3     H2       HT       0.417000        1.0080           0
      9430 WT1      2929     TIP3     OH2      OT      -0.834000       15.9994           0
      9431 WT1      2929     TIP3     H1       HT       0.417000        1.0080           0
      9432 WT1      2929     TIP3     H2       HT       0.417000        1.0080           0
      9433 WT1      2930     TIP3     OH2      OT      -0.834000       15.9994           0
      9434 WT1      2930     TIP3     H1       HT       0.417000        1.0080           0
      9435 WT1      2930     TIP3     H2       HT       0.417000        1.0080           0
      9436 WT1      2931     TIP3     OH2      OT      -0.834000       15.9994           0
      9437 WT1      2931     TIP3     H1       HT       0.417000        1.0080           0
      9438 WT1      2931     TIP3     H2       HT       0.417000        1.0080           0
      9439 WT1      2932     TIP3     OH2      OT      -0.834000       15.9994           0
      9440 WT1      2932     TIP3     H1       HT       0.417000        1.0080           0
      9441 WT1      2932     TIP3     H2       HT       0.417000        1.0080           0
      9442 WT1      2934     TIP3     OH2      OT      -0.834000       15.9994           0
      9443 WT1      2934     TIP3     H1       HT       0.417000        1.0080           0
      9444 WT1      2934     TIP3     H2       HT       0.417000        1.0080           0
      9445 WT1      2935     TIP3     OH2      OT      -0.834000       15.9994           0
      9446 WT1      2935     TIP3     H1       HT       0.417000        1.0080           0
      9447 WT1      2935     TIP3     H2       HT       0.417000        1.0080           0
      9448 WT1      2936     TIP3     OH2      OT      -0.834000       15.9994           0
      9449 WT1      2936     TIP3     H1       HT       0.417000        1.0080           0
      9450 WT1      2936     TIP3     H2       HT       0.417000        1.0080           0
      9451 WT1      2937     TIP3     OH2      OT      -0.834000       15.9994           0
      9452 WT1      2937     TIP3     H1       HT       0.417000        1.0080           0
      9453 WT1      2937     TIP3     H2       HT       0.417000        1.0080           0
      9454 WT1      2938     TIP3     OH2      OT      -0.834000       15.9994           0
      9455 WT1      2938     TIP3     H1       HT       0.417000        1.0080           0
      9456 WT1      2938     TIP3     H2       HT       0.417000        1.0080           0
      9457 WT1      2939     TIP3     OH2      OT      -0.834000       15.9994           0
      9458 WT1      2939     TIP3     H1       HT       0.417000        1.0080           0
      9459 WT1      2939     TIP3     H2       HT       0.417000        1.0080           0
      9460 WT1      2940     TIP3     OH2      OT      -0.834000       15.9994           0
      9461 WT1      2940     TIP3     H1       HT       0.417000        1.0080           0
      9462 WT1      2940     TIP3     H2       HT       0.417000        1.0080           0
      9463 WT1      2941     TIP3     OH2      OT      -0.834000       15.9994           0
      9464 WT1      2941     TIP3     H1       HT       0.417000        1.0080           0
      9465 WT1      2941     TIP3     H2       HT       0.417000        1.0080           0
      9466 WT1      2943     TIP3     OH2      OT      -0.834000       15.9994           0
      9467 WT1      2943     TIP3     H1       HT       0.417000        1.0080           0
      9468 WT1      2943     TIP3     H2       HT       0.417000        1.0080           0
      9469 WT1      2944     TIP3     OH2      OT      -0.834000       15.9994           0
      9470 WT1      2944     TIP3     H1       HT       0.417000        1.0080           0
      9471 WT1      2944     TIP3     H2       HT       0.417000        1.0080           0
      9472 WT1      2945     TIP3     OH2      OT      -0.834000       15.9994           0
      9473 WT1      2945     TIP3     H1       HT       0.417000        1.0080           0
      9474 WT1      2945     TIP3     H2       HT       0.417000        1.0080           0
      9475 WT1      2946     TIP3     OH2      OT      -0.834000       15.9994           0
      9476 WT1      2946     TIP3     H1       HT       0.417000        1.0080           0
      9477 WT1      2946     TIP3     H2       HT       0.417000        1.0080           0
      9478 WT1      2947     TIP3     OH2      OT      -0.834000       15.9994           0
      9479 WT1      2947     TIP3     H1       HT       0.417000        1.0080           0
      9480 WT1      2947     TIP3     H2       HT       0.417000        1.0080           0
      9481 WT1      2948     TIP3     OH2      OT      -0.834000       15.9994           0
      9482 WT1      2948     TIP3     H1       HT       0.417000        1.0080           0
      9483 WT1      2948     TIP3     H2       HT       0.417000        1.0080           0
      9484 WT1      2949     TIP3     OH2      OT      -0.834000       15.9994           0
      9485 WT1      2949     TIP3     H1       HT       0.417000        1.0080           0
      9486 WT1      2949     TIP3     H2       HT       0.417000        1.0080           0
      9487 WT1      2950     TIP3     OH2      OT      -0.834000       15.9994           0
      9488 WT1      2950     TIP3     H1       HT       0.417000        1.0080           0
      9489 WT1      2950     TIP3     H2       HT       0.417000        1.0080           0
      9490 WT1      2951     TIP3     OH2      OT      -0.834000       15.9994           0
      9491 WT1      2951     TIP3     H1       HT       0.417000        1.0080           0
      9492 WT1      2951     TIP3     H2       HT       0.417000        1.0080           0
      9493 WT1      2952     TIP3     OH2      OT      -0.834000       15.9994           0
      9494 WT1      2952     TIP3     H1       HT       0.417000        1.0080           0
      9495 WT1      2952     TIP3     H2       HT       0.417000        1.0080           0
      9496 WT1      2953     TIP3     OH2      OT      -0.834000       15.9994           0
      9497 WT1      2953     TIP3     H1       HT       0.417000        1.0080           0
      9498 WT1      2953     TIP3     H2       HT       0.417000        1.0080           0
      9499 WT1      2954     TIP3     OH2      OT      -0.834000       15.9994           0
      9500 WT1      2954     TIP3     H1       HT       0.417000        1.0080           0
      9501 WT1      2954     TIP3     H2       HT       0.417000        1.0080           0
      9502 WT1      2955     TIP3     OH2      OT      -0.834000       15.9994           0
      9503 WT1      2955     TIP3     H1       HT       0.417000        1.0080           0
      9504 WT1      2955     TIP3     H2       HT       0.417000        1.0080           0
      9505 WT1      2956     TIP3     OH2      OT      -0.834000       15.9994           0
      9506 WT1      2956     TIP3     H1       HT       0.417000        1.0080           0
      9507 WT1      2956     TIP3     H2       HT       0.417000        1.0080           0
      9508 WT1      2957     TIP3     OH2      OT      -0.834000       15.9994           0
      9509 WT1      2957     TIP3     H1       HT       0.417000        1.0080           0
      9510 WT1      2957     TIP3     H2       HT       0.417000        1.0080           0
      9511 WT1      2958     TIP3     OH2      OT      -0.834000       15.9994           0
      9512 WT1      2958     TIP3     H1       HT       0.417000        1.0080           0
      9513 WT1      2958     TIP3     H2       HT       0.417000        1.0080           0
      9514 WT1      2959     TIP3     OH2      OT      -0.834000       15.9994           0
      9515 WT1      2959     TIP3     H1       HT       0.417000        1.0080           0
      9516 WT1      2959     TIP3     H2       HT       0.417000        1.0080           0
      9517 WT1      2960     TIP3     OH2      OT      -0.834000       15.9994           0
      9518 WT1      2960     TIP3     H1       HT       0.417000        1.0080           0
      9519 WT1      2960     TIP3     H2       HT       0.417000        1.0080           0
      9520 WT1      2961     TIP3     OH2      OT      -0.834000       15.9994           0
      9521 WT1      2961     TIP3     H1       HT       0.417000        1.0080           0
      9522 WT1      2961     TIP3     H2       HT       0.417000        1.0080           0
      9523 WT1      2962     TIP3     OH2      OT      -0.834000       15.9994           0
      9524 WT1      2962     TIP3     H1       HT       0.417000        1.0080           0
      9525 WT1      2962     TIP3     H2       HT       0.417000        1.0080           0
      9526 WT1      2963     TIP3     OH2      OT      -0.834000       15.9994           0
      9527 WT1      2963     TIP3     H1       HT       0.417000        1.0080           0
      9528 WT1      2963     TIP3     H2       HT       0.417000        1.0080           0
      9529 WT1      2964     TIP3     OH2      OT      -0.834000       15.9994           0
      9530 WT1      2964     TIP3     H1       HT       0.417000        1.0080           0
      9531 WT1      2964     TIP3     H2       HT       0.417000        1.0080           0
      9532 WT1      2965     TIP3     OH2      OT      -0.834000       15.9994           0
      9533 WT1      2965     TIP3     H1       HT       0.417000        1.0080           0
      9534 WT1      2965     TIP3     H2       HT       0.417000        1.0080           0
      9535 WT1      2966     TIP3     OH2      OT      -0.834000       15.9994           0
      9536 WT1      2966     TIP3     H1       HT       0.417000        1.0080           0
      9537 WT1      2966     TIP3     H2       HT       0.417000        1.0080           0
      9538 WT1      2967     TIP3     OH2      OT      -0.834000       15.9994           0
      9539 WT1      2967     TIP3     H1       HT       0.417000        1.0080           0
      9540 WT1      2967     TIP3     H2       HT       0.417000        1.0080           0
      9541 WT1      2968     TIP3     OH2      OT      -0.834000       15.9994           0
      9542 WT1      2968     TIP3     H1       HT       0.417000        1.0080           0
      9543 WT1      2968     TIP3     H2       HT       0.417000        1.0080           0
      9544 WT1      2969     TIP3     OH2      OT      -0.834000       15.9994           0
      9545 WT1      2969     TIP3     H1       HT       0.417000        1.0080           0
      9546 WT1      2969     TIP3     H2       HT       0.417000        1.0080           0
      9547 WT1      2970     TIP3     OH2      OT      -0.834000       15.9994           0
      9548 WT1      2970     TIP3     H1       HT       0.417000        1.0080           0
      9549 WT1      2970     TIP3     H2       HT       0.417000        1.0080           0
      9550 WT1      2971     TIP3     OH2      OT      -0.834000       15.9994           0
      9551 WT1      2971     TIP3     H1       HT       0.417000        1.0080           0
      9552 WT1      2971     TIP3     H2       HT       0.417000        1.0080           0
      9553 WT1      2972     TIP3     OH2      OT      -0.834000       15.9994           0
      9554 WT1      2972     TIP3     H1       HT       0.417000        1.0080           0
      9555 WT1      2972     TIP3     H2       HT       0.417000        1.0080           0
      9556 WT1      2973     TIP3     OH2      OT      -0.834000       15.9994           0
      9557 WT1      2973     TIP3     H1       HT       0.417000        1.0080           0
      9558 WT1      2973     TIP3     H2       HT       0.417000        1.0080           0
      9559 WT1      2974     TIP3     OH2      OT      -0.834000       15.9994           0
      9560 WT1      2974     TIP3     H1       HT       0.417000        1.0080           0
      9561 WT1      2974     TIP3     H2       HT       0.417000        1.0080           0
      9562 WT1      2975     TIP3     OH2      OT      -0.834000       15.9994           0
      9563 WT1      2975     TIP3     H1       HT       0.417000        1.0080           0
      9564 WT1      2975     TIP3     H2       HT       0.417000        1.0080           0
      9565 WT1      2976     TIP3     OH2      OT      -0.834000       15.9994           0
      9566 WT1      2976     TIP3     H1       HT       0.417000        1.0080           0
      9567 WT1      2976     TIP3     H2       HT       0.417000        1.0080           0
      9568 WT1      2977     TIP3     OH2      OT      -0.834000       15.9994           0
      9569 WT1      2977     TIP3     H1       HT       0.417000        1.0080           0
      9570 WT1      2977     TIP3     H2       HT       0.417000        1.0080           0
      9571 WT1      2978     TIP3     OH2      OT      -0.834000       15.9994           0
      9572 WT1      2978     TIP3     H1       HT       0.417000        1.0080           0
      9573 WT1      2978     TIP3     H2       HT       0.417000        1.0080           0
      9574 WT1      2979     TIP3     OH2      OT      -0.834000       15.9994           0
      9575 WT1      2979     TIP3     H1       HT       0.417000        1.0080           0
      9576 WT1      2979     TIP3     H2       HT       0.417000        1.0080           0
      9577 WT1      2981     TIP3     OH2      OT      -0.834000       15.9994           0
      9578 WT1      2981     TIP3     H1       HT       0.417000        1.0080           0
      9579 WT1      2981     TIP3     H2       HT       0.417000        1.0080           0
      9580 WT1      2982     TIP3     OH2      OT      -0.834000       15.9994           0
      9581 WT1      2982     TIP3     H1       HT       0.417000        1.0080           0
      9582 WT1      2982     TIP3     H2       HT       0.417000        1.0080           0
      9583 WT1      2983     TIP3     OH2      OT      -0.834000       15.9994           0
      9584 WT1      2983     TIP3     H1       HT       0.417000        1.0080           0
      9585 WT1      2983     TIP3     H2       HT       0.417000        1.0080           0
      9586 WT1      2984     TIP3     OH2      OT      -0.834000       15.9994           0
      9587 WT1      2984     TIP3     H1       HT       0.417000        1.0080           0
      9588 WT1      2984     TIP3     H2       HT       0.417000        1.0080           0
      9589 WT1      2985     TIP3     OH2      OT      -0.834000       15.9994           0
      9590 WT1      2985     TIP3     H1       HT       0.417000        1.0080           0
      9591 WT1      2985     TIP3     H2       HT       0.417000        1.0080           0
      9592 WT1      2986     TIP3     OH2      OT      -0.834000       15.9994           0
      9593 WT1      2986     TIP3     H1       HT       0.417000        1.0080           0
      9594 WT1      2986     TIP3     H2       HT       0.417000        1.0080           0
      9595 WT1      2987     TIP3     OH2      OT      -0.834000       15.9994           0
      9596 WT1      2987     TIP3     H1       HT       0.417000        1.0080           0
      9597 WT1      2987     TIP3     H2       HT       0.417000        1.0080           0
      9598 WT1      2988     TIP3     OH2      OT      -0.834000       15.9994           0
      9599 WT1      2988     TIP3     H1       HT       0.417000        1.0080           0
      9600 WT1      2988     TIP3     H2       HT       0.417000        1.0080           0
      9601 WT1      2989     TIP3     OH2      OT      -0.834000       15.9994           0
      9602 WT1      2989     TIP3     H1       HT       0.417000        1.0080           0
      9603 WT1      2989     TIP3     H2       HT       0.417000        1.0080           0
      9604 WT1      2990     TIP3     OH2      OT      -0.834000       15.9994           0
      9605 WT1      2990     TIP3     H1       HT       0.417000        1.0080           0
      9606 WT1      2990     TIP3     H2       HT       0.417000        1.0080           0
      9607 WT1      2991     TIP3     OH2      OT      -0.834000       15.9994           0
      9608 WT1      2991     TIP3     H1       HT       0.417000        1.0080           0
      9609 WT1      2991     TIP3     H2       HT       0.417000        1.0080           0
      9610 WT1      2992     TIP3     OH2      OT      -0.834000       15.9994           0
      9611 WT1      2992     TIP3     H1       HT       0.417000        1.0080           0
      9612 WT1      2992     TIP3     H2       HT       0.417000        1.0080           0
      9613 WT1      2993     TIP3     OH2      OT      -0.834000       15.9994           0
      9614 WT1      2993     TIP3     H1       HT       0.417000        1.0080           0
      9615 WT1      2993     TIP3     H2       HT       0.417000        1.0080           0
      9616 WT1      2994     TIP3     OH2      OT      -0.834000       15.9994           0
      9617 WT1      2994     TIP3     H1       HT       0.417000        1.0080           0
      9618 WT1      2994     TIP3     H2       HT       0.417000        1.0080           0
      9619 WT1      2995     TIP3     OH2      OT      -0.834000       15.9994           0
      9620 WT1      2995     TIP3     H1       HT       0.417000        1.0080           0
      9621 WT1      2995     TIP3     H2       HT       0.417000        1.0080           0
      9622 WT1      2996     TIP3     OH2      OT      -0.834000       15.9994           0
      9623 WT1      2996     TIP3     H1       HT       0.417000        1.0080           0
      9624 WT1      2996     TIP3     H2       HT       0.417000        1.0080           0
      9625 WT1      2997     TIP3     OH2      OT      -0.834000       15.9994           0
      9626 WT1      2997     TIP3     H1       HT       0.417000        1.0080           0
      9627 WT1      2997     TIP3     H2       HT       0.417000        1.0080           0
      9628 WT1      2998     TIP3     OH2      OT      -0.834000       15.9994           0
      9629 WT1      2998     TIP3     H1       HT       0.417000        1.0080           0
      9630 WT1      2998     TIP3     H2       HT       0.417000        1.0080           0
      9631 WT1      2999     TIP3     OH2      OT      -0.834000       15.9994           0
      9632 WT1      2999     TIP3     H1       HT       0.417000        1.0080           0
      9633 WT1      2999     TIP3     H2       HT       0.417000        1.0080           0
      9634 WT1      3000     TIP3     OH2      OT      -0.834000       15.9994           0
      9635 WT1      3000     TIP3     H1       HT       0.417000        1.0080           0
      9636 WT1      3000     TIP3     H2       HT       0.417000        1.0080           0
      9637 WT1      3001     TIP3     OH2      OT      -0.834000       15.9994           0
      9638 WT1      3001     TIP3     H1       HT       0.417000        1.0080           0
      9639 WT1      3001     TIP3     H2       HT       0.417000        1.0080           0
      9640 WT1      3002     TIP3     OH2      OT      -0.834000       15.9994           0
      9641 WT1      3002     TIP3     H1       HT       0.417000        1.0080           0
      9642 WT1      3002     TIP3     H2       HT       0.417000        1.0080           0
      9643 WT1      3003     TIP3     OH2      OT      -0.834000       15.9994           0
      9644 WT1      3003     TIP3     H1       HT       0.417000        1.0080           0
      9645 WT1      3003     TIP3     H2       HT       0.417000        1.0080           0
      9646 WT1      3004     TIP3     OH2      OT      -0.834000       15.9994           0
      9647 WT1      3004     TIP3     H1       HT       0.417000        1.0080           0
      9648 WT1      3004     TIP3     H2       HT       0.417000        1.0080           0
      9649 WT1      3005     TIP3     OH2      OT      -0.834000       15.9994           0
      9650 WT1      3005     TIP3     H1       HT       0.417000        1.0080           0
      9651 WT1      3005     TIP3     H2       HT       0.417000        1.0080           0
      9652 WT1      3006     TIP3     OH2      OT      -0.834000       15.9994           0
      9653 WT1      3006     TIP3     H1       HT       0.417000        1.0080           0
      9654 WT1      3006     TIP3     H2       HT       0.417000        1.0080           0
      9655 WT1      3007     TIP3     OH2      OT      -0.834000       15.9994           0
      9656 WT1      3007     TIP3     H1       HT       0.417000        1.0080           0
      9657 WT1      3007     TIP3     H2       HT       0.417000        1.0080           0
      9658 WT1      3008     TIP3     OH2      OT      -0.834000       15.9994           0
      9659 WT1      3008     TIP3     H1       HT       0.417000        1.0080           0
      9660 WT1      3008     TIP3     H2       HT       0.417000        1.0080           0
      9661 WT1      3009     TIP3     OH2      OT      -0.834000       15.9994           0
      9662 WT1      3009     TIP3     H1       HT       0.417000        1.0080           0
      9663 WT1      3009     TIP3     H2       HT       0.417000        1.0080           0
      9664 WT1      3010     TIP3     OH2      OT      -0.834000       15.9994           0
      9665 WT1      3010     TIP3     H1       HT       0.417000        1.0080           0
      9666 WT1      3010     TIP3     H2       HT       0.417000        1.0080           0
      9667 WT1      3011     TIP3     OH2      OT      -0.834000       15.9994           0
      9668 WT1      3011     TIP3     H1       HT       0.417000        1.0080           0
      9669 WT1      3011     TIP3     H2       HT       0.417000        1.0080           0
      9670 WT1      3012     TIP3     OH2      OT      -0.834000       15.9994           0
      9671 WT1      3012     TIP3     H1       HT       0.417000        1.0080           0
      9672 WT1      3012     TIP3     H2       HT       0.417000        1.0080           0
      9673 WT1      3013     TIP3     OH2      OT      -0.834000       15.9994           0
      9674 WT1      3013     TIP3     H1       HT       0.417000        1.0080           0
      9675 WT1      3013     TIP3     H2       HT       0.417000        1.0080           0
      9676 WT1      3014     TIP3     OH2      OT      -0.834000       15.9994           0
      9677 WT1      3014     TIP3     H1       HT       0.417000        1.0080           0
      9678 WT1      3014     TIP3     H2       HT       0.417000        1.0080           0
      9679 WT1      3015     TIP3     OH2      OT      -0.834000       15.9994           0
      9680 WT1      3015     TIP3     H1       HT       0.417000        1.0080           0
      9681 WT1      3015     TIP3     H2       HT       0.417000        1.0080           0
      9682 WT1      3016     TIP3     OH2      OT      -0.834000       15.9994           0
      9683 WT1      3016     TIP3     H1       HT       0.417000        1.0080           0
      9684 WT1      3016     TIP3     H2       HT       0.417000        1.0080           0
      9685 WT1      3017     TIP3     OH2      OT      -0.834000       15.9994           0
      9686 WT1      3017     TIP3     H1       HT       0.417000        1.0080           0
      9687 WT1      3017     TIP3     H2       HT       0.417000        1.0080           0
      9688 WT1      3018     TIP3     OH2      OT      -0.834000       15.9994           0
      9689 WT1      3018     TIP3     H1       HT       0.417000        1.0080           0
      9690 WT1      3018     TIP3     H2       HT       0.417000        1.0080           0
      9691 WT1      3019     TIP3     OH2      OT      -0.834000       15.9994           0
      9692 WT1      3019     TIP3     H1       HT       0.417000        1.0080           0
      9693 WT1      3019     TIP3     H2       HT       0.417000        1.0080           0
      9694 WT1      3020     TIP3     OH2      OT      -0.834000       15.9994           0
      9695 WT1      3020     TIP3     H1       HT       0.417000        1.0080           0
      9696 WT1      3020     TIP3     H2       HT       0.417000        1.0080           0
      9697 WT1      3021     TIP3     OH2      OT      -0.834000       15.9994           0
      9698 WT1      3021     TIP3     H1       HT       0.417000        1.0080           0
      9699 WT1      3021     TIP3     H2       HT       0.417000        1.0080           0
      9700 WT1      3022     TIP3     OH2      OT      -0.834000       15.9994           0
      9701 WT1      3022     TIP3     H1       HT       0.417000        1.0080           0
      9702 WT1      3022     TIP3     H2       HT       0.417000        1.0080           0
      9703 WT1      3023     TIP3     OH2      OT      -0.834000       15.9994           0
      9704 WT1      3023     TIP3     H1       HT       0.417000        1.0080           0
      9705 WT1      3023     TIP3     H2       HT       0.417000        1.0080           0
      9706 WT1      3024     TIP3     OH2      OT      -0.834000       15.9994           0
      9707 WT1      3024     TIP3     H1       HT       0.417000        1.0080           0
      9708 WT1      3024     TIP3     H2       HT       0.417000        1.0080           0
      9709 WT1      3025     TIP3     OH2      OT      -0.834000       15.9994           0
      9710 WT1      3025     TIP3     H1       HT       0.417000        1.0080           0
      9711 WT1      3025     TIP3     H2       HT       0.417000        1.0080           0
      9712 WT1      3026     TIP3     OH2      OT      -0.834000       15.9994           0
      9713 WT1      3026     TIP3     H1       HT       0.417000        1.0080           0
      9714 WT1      3026     TIP3     H2       HT       0.417000        1.0080           0
      9715 WT1      3027     TIP3     OH2      OT      -0.834000       15.9994           0
      9716 WT1      3027     TIP3     H1       HT       0.417000        1.0080           0
      9717 WT1      3027     TIP3     H2       HT       0.417000        1.0080           0
      9718 WT1      3028     TIP3     OH2      OT      -0.834000       15.9994           0
      9719 WT1      3028     TIP3     H1       HT       0.417000        1.0080           0
      9720 WT1      3028     TIP3     H2       HT       0.417000        1.0080           0
      9721 WT1      3029     TIP3     OH2      OT      -0.834000       15.9994           0
      9722 WT1      3029     TIP3     H1       HT       0.417000        1.0080           0
      9723 WT1      3029     TIP3     H2       HT       0.417000        1.0080           0
      9724 WT1      3030     TIP3     OH2      OT      -0.834000       15.9994           0
      9725 WT1      3030     TIP3     H1       HT       0.417000        1.0080           0
      9726 WT1      3030     TIP3     H2       HT       0.417000        1.0080           0
      9727 WT1      3031     TIP3     OH2      OT      -0.834000       15.9994           0
      9728 WT1      3031     TIP3     H1       HT       0.417000        1.0080           0
      9729 WT1      3031     TIP3     H2       HT       0.417000        1.0080           0
      9730 WT1      3032     TIP3     OH2      OT      -0.834000       15.9994           0
      9731 WT1      3032     TIP3     H1       HT       0.417000        1.0080           0
      9732 WT1      3032     TIP3     H2       HT       0.417000        1.0080           0
      9733 WT1      3033     TIP3     OH2      OT      -0.834000       15.9994           0
      9734 WT1      3033     TIP3     H1       HT       0.417000        1.0080           0
      9735 WT1      3033     TIP3     H2       HT       0.417000        1.0080           0
      9736 WT1      3034     TIP3     OH2      OT      -0.834000       15.9994           0
      9737 WT1      3034     TIP3     H1       HT       0.417000        1.0080           0
      9738 WT1      3034     TIP3     H2       HT       0.417000        1.0080           0
      9739 WT1      3035     TIP3     OH2      OT      -0.834000       15.9994           0
      9740 WT1      3035     TIP3     H1       HT       0.417000        1.0080           0
      9741 WT1      3035     TIP3     H2       HT       0.417000        1.0080           0
      9742 WT1      3037     TIP3     OH2      OT      -0.834000       15.9994           0
      9743 WT1      3037     TIP3     H1       HT       0.417000        1.0080           0
      9744 WT1      3037     TIP3     H2       HT       0.417000        1.0080           0
      9745 WT1      3039     TIP3     OH2      OT      -0.834000       15.9994           0
      9746 WT1      3039     TIP3     H1       HT       0.417000        1.0080           0
      9747 WT1      3039     TIP3     H2       HT       0.417000        1.0080           0
      9748 WT1      3040     TIP3     OH2      OT      -0.834000       15.9994           0
      9749 WT1      3040     TIP3     H1       HT       0.417000        1.0080           0
      9750 WT1      3040     TIP3     H2       HT       0.417000        1.0080           0
      9751 WT1      3041     TIP3     OH2      OT      -0.834000       15.9994           0
      9752 WT1      3041     TIP3     H1       HT       0.417000        1.0080           0
      9753 WT1      3041     TIP3     H2       HT       0.417000        1.0080           0
      9754 WT1      3042     TIP3     OH2      OT      -0.834000       15.9994           0
      9755 WT1      3042     TIP3     H1       HT       0.417000        1.0080           0
      9756 WT1      3042     TIP3     H2       HT       0.417000        1.0080           0
      9757 WT1      3043     TIP3     OH2      OT      -0.834000       15.9994           0
      9758 WT1      3043     TIP3     H1       HT       0.417000        1.0080           0
      9759 WT1      3043     TIP3     H2       HT       0.417000        1.0080           0
      9760 WT1      3044     TIP3     OH2      OT      -0.834000       15.9994           0
      9761 WT1      3044     TIP3     H1       HT       0.417000        1.0080           0
      9762 WT1      3044     TIP3     H2       HT       0.417000        1.0080           0
      9763 WT1      3045     TIP3     OH2      OT      -0.834000       15.9994           0
      9764 WT1      3045     TIP3     H1       HT       0.417000        1.0080           0
      9765 WT1      3045     TIP3     H2       HT       0.417000        1.0080           0
      9766 WT1      3046     TIP3     OH2      OT      -0.834000       15.9994           0
      9767 WT1      3046     TIP3     H1       HT       0.417000        1.0080           0
      9768 WT1      3046     TIP3     H2       HT       0.417000        1.0080           0
      9769 WT1      3047     TIP3     OH2      OT      -0.834000       15.9994           0
      9770 WT1      3047     TIP3     H1       HT       0.417000        1.0080           0
      9771 WT1      3047     TIP3     H2       HT       0.417000        1.0080           0
      9772 WT1      3048     TIP3     OH2      OT      -0.834000       15.9994           0
      9773 WT1      3048     TIP3     H1       HT       0.417000        1.0080           0
      9774 WT1      3048     TIP3     H2       HT       0.417000        1.0080           0
      9775 WT1      3049     TIP3     OH2      OT      -0.834000       15.9994           0
      9776 WT1      3049     TIP3     H1       HT       0.417000        1.0080           0
      9777 WT1      3049     TIP3     H2       HT       0.417000        1.0080           0
      9778 WT1      3050     TIP3     OH2      OT      -0.834000       15.9994           0
      9779 WT1      3050     TIP3     H1       HT       0.417000        1.0080           0
      9780 WT1      3050     TIP3     H2       HT       0.417000        1.0080           0
      9781 WT1      3051     TIP3     OH2      OT      -0.834000       15.9994           0
      9782 WT1      3051     TIP3     H1       HT       0.417000        1.0080           0
      9783 WT1      3051     TIP3     H2       HT       0.417000        1.0080           0
      9784 WT1      3052     TIP3     OH2      OT      -0.834000       15.9994           0
      9785 WT1      3052     TIP3     H1       HT       0.417000        1.0080           0
      9786 WT1      3052     TIP3     H2       HT       0.417000        1.0080           0
      9787 WT1      3053     TIP3     OH2      OT      -0.834000       15.9994           0
      9788 WT1      3053     TIP3     H1       HT       0.417000        1.0080           0
      9789 WT1      3053     TIP3     H2       HT       0.417000        1.0080           0
      9790 WT1      3054     TIP3     OH2      OT      -0.834000       15.9994           0
      9791 WT1      3054     TIP3     H1       HT       0.417000        1.0080           0
      9792 WT1      3054     TIP3     H2       HT       0.417000        1.0080           0
      9793 WT1      3055     TIP3     OH2      OT      -0.834000       15.9994           0
      9794 WT1      3055     TIP3     H1       HT       0.417000        1.0080           0
      9795 WT1      3055     TIP3     H2       HT       0.417000        1.0080           0
      9796 WT1      3056     TIP3     OH2      OT      -0.834000       15.9994           0
      9797 WT1      3056     TIP3     H1       HT       0.417000        1.0080           0
      9798 WT1      3056     TIP3     H2       HT       0.417000        1.0080           0
      9799 WT1      3057     TIP3     OH2      OT      -0.834000       15.9994           0
      9800 WT1      3057     TIP3     H1       HT       0.417000        1.0080           0
      9801 WT1      3057     TIP3     H2       HT       0.417000        1.0080           0
      9802 WT1      3059     TIP3     OH2      OT      -0.834000       15.9994           0
      9803 WT1      3059     TIP3     H1       HT       0.417000        1.0080           0
      9804 WT1      3059     TIP3     H2       HT       0.417000        1.0080           0
      9805 WT1      3060     TIP3     OH2      OT      -0.834000       15.9994           0
      9806 WT1      3060     TIP3     H1       HT       0.417000        1.0080           0
      9807 WT1      3060     TIP3     H2       HT       0.417000        1.0080           0
      9808 WT1      3061     TIP3     OH2      OT      -0.834000       15.9994           0
      9809 WT1      3061     TIP3     H1       HT       0.417000        1.0080           0
      9810 WT1      3061     TIP3     H2       HT       0.417000        1.0080           0
      9811 WT1      3062     TIP3     OH2      OT      -0.834000       15.9994           0
      9812 WT1      3062     TIP3     H1       HT       0.417000        1.0080           0
      9813 WT1      3062     TIP3     H2       HT       0.417000        1.0080           0
      9814 WT1      3063     TIP3     OH2      OT      -0.834000       15.9994           0
      9815 WT1      3063     TIP3     H1       HT       0.417000        1.0080           0
      9816 WT1      3063     TIP3     H2       HT       0.417000        1.0080           0
      9817 WT1      3064     TIP3     OH2      OT      -0.834000       15.9994           0
      9818 WT1      3064     TIP3     H1       HT       0.417000        1.0080           0
      9819 WT1      3064     TIP3     H2       HT       0.417000        1.0080           0
      9820 WT1      3065     TIP3     OH2      OT      -0.834000       15.9994           0
      9821 WT1      3065     TIP3     H1       HT       0.417000        1.0080           0
      9822 WT1      3065     TIP3     H2       HT       0.417000        1.0080           0
      9823 WT1      3066     TIP3     OH2      OT      -0.834000       15.9994           0
      9824 WT1      3066     TIP3     H1       HT       0.417000        1.0080           0
      9825 WT1      3066     TIP3     H2       HT       0.417000        1.0080           0
      9826 WT1      3067     TIP3     OH2      OT      -0.834000       15.9994           0
      9827 WT1      3067     TIP3     H1       HT       0.417000        1.0080           0
      9828 WT1      3067     TIP3     H2       HT       0.417000        1.0080           0
      9829 WT1      3069     TIP3     OH2      OT      -0.834000       15.9994           0
      9830 WT1      3069     TIP3     H1       HT       0.417000        1.0080           0
      9831 WT1      3069     TIP3     H2       HT       0.417000        1.0080           0
      9832 WT1      3070     TIP3     OH2      OT      -0.834000       15.9994           0
      9833 WT1      3070     TIP3     H1       HT       0.417000        1.0080           0
      9834 WT1      3070     TIP3     H2       HT       0.417000        1.0080           0
      9835 WT1      3071     TIP3     OH2      OT      -0.834000       15.9994           0
      9836 WT1      3071     TIP3     H1       HT       0.417000        1.0080           0
      9837 WT1      3071     TIP3     H2       HT       0.417000        1.0080           0
      9838 WT1      3072     TIP3     OH2      OT      -0.834000       15.9994           0
      9839 WT1      3072     TIP3     H1       HT       0.417000        1.0080           0
      9840 WT1      3072     TIP3     H2       HT       0.417000        1.0080           0
      9841 WT1      3073     TIP3     OH2      OT      -0.834000       15.9994           0
      9842 WT1      3073     TIP3     H1       HT       0.417000        1.0080           0
      9843 WT1      3073     TIP3     H2       HT       0.417000        1.0080           0
      9844 WT1      3074     TIP3     OH2      OT      -0.834000       15.9994           0
      9845 WT1      3074     TIP3     H1       HT       0.417000        1.0080           0
      9846 WT1      3074     TIP3     H2       HT       0.417000        1.0080           0
      9847 WT1      3075     TIP3     OH2      OT      -0.834000       15.9994           0
      9848 WT1      3075     TIP3     H1       HT       0.417000        1.0080           0
      9849 WT1      3075     TIP3     H2       HT       0.417000        1.0080           0
      9850 WT1      3076     TIP3     OH2      OT      -0.834000       15.9994           0
      9851 WT1      3076     TIP3     H1       HT       0.417000        1.0080           0
      9852 WT1      3076     TIP3     H2       HT       0.417000        1.0080           0
      9853 WT1      3077     TIP3     OH2      OT      -0.834000       15.9994           0
      9854 WT1      3077     TIP3     H1       HT       0.417000        1.0080           0
      9855 WT1      3077     TIP3     H2       HT       0.417000        1.0080           0
      9856 WT1      3078     TIP3     OH2      OT      -0.834000       15.9994           0
      9857 WT1      3078     TIP3     H1       HT       0.417000        1.0080           0
      9858 WT1      3078     TIP3     H2       HT       0.417000        1.0080           0
      9859 WT1      3079     TIP3     OH2      OT      -0.834000       15.9994           0
      9860 WT1      3079     TIP3     H1       HT       0.417000        1.0080           0
      9861 WT1      3079     TIP3     H2       HT       0.417000        1.0080           0
      9862 WT1      3080     TIP3     OH2      OT      -0.834000       15.9994           0
      9863 WT1      3080     TIP3     H1       HT       0.417000        1.0080           0
      9864 WT1      3080     TIP3     H2       HT       0.417000        1.0080           0
      9865 WT1      3081     TIP3     OH2      OT      -0.834000       15.9994           0
      9866 WT1      3081     TIP3     H1       HT       0.417000        1.0080           0
      9867 WT1      3081     TIP3     H2       HT       0.417000        1.0080           0
      9868 WT1      3082     TIP3     OH2      OT      -0.834000       15.9994           0
      9869 WT1      3082     TIP3     H1       HT       0.417000        1.0080           0
      9870 WT1      3082     TIP3     H2       HT       0.417000        1.0080           0
      9871 WT1      3083     TIP3     OH2      OT      -0.834000       15.9994           0
      9872 WT1      3083     TIP3     H1       HT       0.417000        1.0080           0
      9873 WT1      3083     TIP3     H2       HT       0.417000        1.0080           0
      9874 WT1      3084     TIP3     OH2      OT      -0.834000       15.9994           0
      9875 WT1      3084     TIP3     H1       HT       0.417000        1.0080           0
      9876 WT1      3084     TIP3     H2       HT       0.417000        1.0080           0
      9877 WT1      3085     TIP3     OH2      OT      -0.834000       15.9994           0
      9878 WT1      3085     TIP3     H1       HT       0.417000        1.0080           0
      9879 WT1      3085     TIP3     H2       HT       0.417000        1.0080           0
      9880 WT1      3086     TIP3     OH2      OT      -0.834000       15.9994           0
      9881 WT1      3086     TIP3     H1       HT       0.417000        1.0080           0
      9882 WT1      3086     TIP3     H2       HT       0.417000        1.0080           0
      9883 WT1      3087     TIP3     OH2      OT      -0.834000       15.9994           0
      9884 WT1      3087     TIP3     H1       HT       0.417000        1.0080           0
      9885 WT1      3087     TIP3     H2       HT       0.417000        1.0080           0
      9886 WT1      3088     TIP3     OH2      OT      -0.834000       15.9994           0
      9887 WT1      3088     TIP3     H1       HT       0.417000        1.0080           0
      9888 WT1      3088     TIP3     H2       HT       0.417000        1.0080           0
      9889 WT1      3089     TIP3     OH2      OT      -0.834000       15.9994           0
      9890 WT1      3089     TIP3     H1       HT       0.417000        1.0080           0
      9891 WT1      3089     TIP3     H2       HT       0.417000        1.0080           0
      9892 WT1      3090     TIP3     OH2      OT      -0.834000       15.9994           0
      9893 WT1      3090     TIP3     H1       HT       0.417000        1.0080           0
      9894 WT1      3090     TIP3     H2       HT       0.417000        1.0080           0
      9895 WT1      3091     TIP3     OH2      OT      -0.834000       15.9994           0
      9896 WT1      3091     TIP3     H1       HT       0.417000        1.0080           0
      9897 WT1      3091     TIP3     H2       HT       0.417000        1.0080           0
      9898 WT1      3092     TIP3     OH2      OT      -0.834000       15.9994           0
      9899 WT1      3092     TIP3     H1       HT       0.417000        1.0080           0
      9900 WT1      3092     TIP3     H2       HT       0.417000        1.0080           0
      9901 WT1      3093     TIP3     OH2      OT      -0.834000       15.9994           0
      9902 WT1      3093     TIP3     H1       HT       0.417000        1.0080           0
      9903 WT1      3093     TIP3     H2       HT       0.417000        1.0080           0
      9904 WT1      3094     TIP3     OH2      OT      -0.834000       15.9994           0
      9905 WT1      3094     TIP3     H1       HT       0.417000        1.0080           0
      9906 WT1      3094     TIP3     H2       HT       0.417000        1.0080           0
      9907 WT1      3095     TIP3     OH2      OT      -0.834000       15.9994           0
      9908 WT1      3095     TIP3     H1       HT       0.417000        1.0080           0
      9909 WT1      3095     TIP3     H2       HT       0.417000        1.0080           0
      9910 WT1      3096     TIP3     OH2      OT      -0.834000       15.9994           0
      9911 WT1      3096     TIP3     H1       HT       0.417000        1.0080           0
      9912 WT1      3096     TIP3     H2       HT       0.417000        1.0080           0
      9913 WT1      3097     TIP3     OH2      OT      -0.834000       15.9994           0
      9914 WT1      3097     TIP3     H1       HT       0.417000        1.0080           0
      9915 WT1      3097     TIP3     H2       HT       0.417000        1.0080           0
      9916 WT1      3098     TIP3     OH2      OT      -0.834000       15.9994           0
      9917 WT1      3098     TIP3     H1       HT       0.417000        1.0080           0
      9918 WT1      3098     TIP3     H2       HT       0.417000        1.0080           0
      9919 WT1      3100     TIP3     OH2      OT      -0.834000       15.9994           0
      9920 WT1      3100     TIP3     H1       HT       0.417000        1.0080           0
      9921 WT1      3100     TIP3     H2       HT       0.417000        1.0080           0
      9922 WT1      3102     TIP3     OH2      OT      -0.834000       15.9994           0
      9923 WT1      3102     TIP3     H1       HT       0.417000        1.0080           0
      9924 WT1      3102     TIP3     H2       HT       0.417000        1.0080           0
      9925 WT1      3103     TIP3     OH2      OT      -0.834000       15.9994           0
      9926 WT1      3103     TIP3     H1       HT       0.417000        1.0080           0
      9927 WT1      3103     TIP3     H2       HT       0.417000        1.0080           0
      9928 WT1      3104     TIP3     OH2      OT      -0.834000       15.9994           0
      9929 WT1      3104     TIP3     H1       HT       0.417000        1.0080           0
      9930 WT1      3104     TIP3     H2       HT       0.417000        1.0080           0
      9931 WT1      3105     TIP3     OH2      OT      -0.834000       15.9994           0
      9932 WT1      3105     TIP3     H1       HT       0.417000        1.0080           0
      9933 WT1      3105     TIP3     H2       HT       0.417000        1.0080           0
      9934 WT1      3106     TIP3     OH2      OT      -0.834000       15.9994           0
      9935 WT1      3106     TIP3     H1       HT       0.417000        1.0080           0
      9936 WT1      3106     TIP3     H2       HT       0.417000        1.0080           0
      9937 WT1      3107     TIP3     OH2      OT      -0.834000       15.9994           0
      9938 WT1      3107     TIP3     H1       HT       0.417000        1.0080           0
      9939 WT1      3107     TIP3     H2       HT       0.417000        1.0080           0
      9940 WT1      3108     TIP3     OH2      OT      -0.834000       15.9994           0
      9941 WT1      3108     TIP3     H1       HT       0.417000        1.0080           0
      9942 WT1      3108     TIP3     H2       HT       0.417000        1.0080           0
      9943 WT1      3109     TIP3     OH2      OT      -0.834000       15.9994           0
      9944 WT1      3109     TIP3     H1       HT       0.417000        1.0080           0
      9945 WT1      3109     TIP3     H2       HT       0.417000        1.0080           0
      9946 WT1      3110     TIP3     OH2      OT      -0.834000       15.9994           0
      9947 WT1      3110     TIP3     H1       HT       0.417000        1.0080           0
      9948 WT1      3110     TIP3     H2       HT       0.417000        1.0080           0
      9949 WT1      3111     TIP3     OH2      OT      -0.834000       15.9994           0
      9950 WT1      3111     TIP3     H1       HT       0.417000        1.0080           0
      9951 WT1      3111     TIP3     H2       HT       0.417000        1.0080           0
      9952 WT1      3112     TIP3     OH2      OT      -0.834000       15.9994           0
      9953 WT1      3112     TIP3     H1       HT       0.417000        1.0080           0
      9954 WT1      3112     TIP3     H2       HT       0.417000        1.0080           0
      9955 WT1      3113     TIP3     OH2      OT      -0.834000       15.9994           0
      9956 WT1      3113     TIP3     H1       HT       0.417000        1.0080           0
      9957 WT1      3113     TIP3     H2       HT       0.417000        1.0080           0
      9958 WT1      3114     TIP3     OH2      OT      -0.834000       15.9994           0
      9959 WT1      3114     TIP3     H1       HT       0.417000        1.0080           0
      9960 WT1      3114     TIP3     H2       HT       0.417000        1.0080           0
      9961 WT1      3115     TIP3     OH2      OT      -0.834000       15.9994           0
      9962 WT1      3115     TIP3     H1       HT       0.417000        1.0080           0
      9963 WT1      3115     TIP3     H2       HT       0.417000        1.0080           0
      9964 WT1      3116     TIP3     OH2      OT      -0.834000       15.9994           0
      9965 WT1      3116     TIP3     H1       HT       0.417000        1.0080           0
      9966 WT1      3116     TIP3     H2       HT       0.417000        1.0080           0
      9967 WT1      3118     TIP3     OH2      OT      -0.834000       15.9994           0
      9968 WT1      3118     TIP3     H1       HT       0.417000        1.0080           0
      9969 WT1      3118     TIP3     H2       HT       0.417000        1.0080           0
      9970 WT1      3119     TIP3     OH2      OT      -0.834000       15.9994           0
      9971 WT1      3119     TIP3     H1       HT       0.417000        1.0080           0
      9972 WT1      3119     TIP3     H2       HT       0.417000        1.0080           0
      9973 WT1      3120     TIP3     OH2      OT      -0.834000       15.9994           0
      9974 WT1      3120     TIP3     H1       HT       0.417000        1.0080           0
      9975 WT1      3120     TIP3     H2       HT       0.417000        1.0080           0
      9976 WT1      3121     TIP3     OH2      OT      -0.834000       15.9994           0
      9977 WT1      3121     TIP3     H1       HT       0.417000        1.0080           0
      9978 WT1      3121     TIP3     H2       HT       0.417000        1.0080           0
      9979 WT1      3122     TIP3     OH2      OT      -0.834000       15.9994           0
      9980 WT1      3122     TIP3     H1       HT       0.417000        1.0080           0
      9981 WT1      3122     TIP3     H2       HT       0.417000        1.0080           0
      9982 WT1      3123     TIP3     OH2      OT      -0.834000       15.9994           0
      9983 WT1      3123     TIP3     H1       HT       0.417000        1.0080           0
      9984 WT1      3123     TIP3     H2       HT       0.417000        1.0080           0
      9985 WT1      3124     TIP3     OH2      OT      -0.834000       15.9994           0
      9986 WT1      3124     TIP3     H1       HT       0.417000        1.0080           0
      9987 WT1      3124     TIP3     H2       HT       0.417000        1.0080           0
      9988 WT1      3126     TIP3     OH2      OT      -0.834000       15.9994           0
      9989 WT1      3126     TIP3     H1       HT       0.417000        1.0080           0
      9990 WT1      3126     TIP3     H2       HT       0.417000        1.0080           0
      9991 WT1      3127     TIP3     OH2      OT      -0.834000       15.9994           0
      9992 WT1      3127     TIP3     H1       HT       0.417000        1.0080           0
      9993 WT1      3127     TIP3     H2       HT       0.417000        1.0080           0
      9994 WT1      3128     TIP3     OH2      OT      -0.834000       15.9994           0
      9995 WT1      3128     TIP3     H1       HT       0.417000        1.0080           0
      9996 WT1      3128     TIP3     H2       HT       0.417000        1.0080           0
      9997 WT1      3129     TIP3     OH2      OT      -0.834000       15.9994           0
      9998 WT1      3129     TIP3     H1       HT       0.417000        1.0080           0
      9999 WT1      3129     TIP3     H2       HT       0.417000        1.0080           0
     10000 WT1      3130     TIP3     OH2      OT      -0.834000       15.9994           0
     10001 WT1      3130     TIP3     H1       HT       0.417000        1.0080           0
     10002 WT1      3130     TIP3     H2       HT       0.417000        1.0080           0
     10003 WT1      3131     TIP3     OH2      OT      -0.834000       15.9994           0
     10004 WT1      3131     TIP3     H1       HT       0.417000        1.0080           0
     10005 WT1      3131     TIP3     H2       HT       0.417000        1.0080           0
     10006 WT1      3132     TIP3     OH2      OT      -0.834000       15.9994           0
     10007 WT1      3132     TIP3     H1       HT       0.417000        1.0080           0
     10008 WT1      3132     TIP3     H2       HT       0.417000        1.0080           0
     10009 WT1      3134     TIP3     OH2      OT      -0.834000       15.9994           0
     10010 WT1      3134     TIP3     H1       HT       0.417000        1.0080           0
     10011 WT1      3134     TIP3     H2       HT       0.417000        1.0080           0
     10012 WT1      3135     TIP3     OH2      OT      -0.834000       15.9994           0
     10013 WT1      3135     TIP3     H1       HT       0.417000        1.0080           0
     10014 WT1      3135     TIP3     H2       HT       0.417000        1.0080           0
     10015 WT1      3136     TIP3     OH2      OT      -0.834000       15.9994           0
     10016 WT1      3136     TIP3     H1       HT       0.417000        1.0080           0
     10017 WT1      3136     TIP3     H2       HT       0.417000        1.0080           0
     10018 WT1      3137     TIP3     OH2      OT      -0.834000       15.9994           0
     10019 WT1      3137     TIP3     H1       HT       0.417000        1.0080           0
     10020 WT1      3137     TIP3     H2       HT       0.417000        1.0080           0
     10021 WT1      3138     TIP3     OH2      OT      -0.834000       15.9994           0
     10022 WT1      3138     TIP3     H1       HT       0.417000        1.0080           0
     10023 WT1      3138     TIP3     H2       HT       0.417000        1.0080           0
     10024 WT1      3139     TIP3     OH2      OT      -0.834000       15.9994           0
     10025 WT1      3139     TIP3     H1       HT       0.417000        1.0080           0
     10026 WT1      3139     TIP3     H2       HT       0.417000        1.0080           0
     10027 WT1      3140     TIP3     OH2      OT      -0.834000       15.9994           0
     10028 WT1      3140     TIP3     H1       HT       0.417000        1.0080           0
     10029 WT1      3140     TIP3     H2       HT       0.417000        1.0080           0
     10030 WT1      3142     TIP3     OH2      OT      -0.834000       15.9994           0
     10031 WT1      3142     TIP3     H1       HT       0.417000        1.0080           0
     10032 WT1      3142     TIP3     H2       HT       0.417000        1.0080           0
     10033 WT1      3143     TIP3     OH2      OT      -0.834000       15.9994           0
     10034 WT1      3143     TIP3     H1       HT       0.417000        1.0080           0
     10035 WT1      3143     TIP3     H2       HT       0.417000        1.0080           0
     10036 WT1      3144     TIP3     OH2      OT      -0.834000       15.9994           0
     10037 WT1      3144     TIP3     H1       HT       0.417000        1.0080           0
     10038 WT1      3144     TIP3     H2       HT       0.417000        1.0080           0
     10039 WT1      3145     TIP3     OH2      OT      -0.834000       15.9994           0
     10040 WT1      3145     TIP3     H1       HT       0.417000        1.0080           0
     10041 WT1      3145     TIP3     H2       HT       0.417000        1.0080           0
     10042 WT1      3146     TIP3     OH2      OT      -0.834000       15.9994           0
     10043 WT1      3146     TIP3     H1       HT       0.417000        1.0080           0
     10044 WT1      3146     TIP3     H2       HT       0.417000        1.0080           0
     10045 WT1      3147     TIP3     OH2      OT      -0.834000       15.9994           0
     10046 WT1      3147     TIP3     H1       HT       0.417000        1.0080           0
     10047 WT1      3147     TIP3     H2       HT       0.417000        1.0080           0
     10048 WT1      3148     TIP3     OH2      OT      -0.834000       15.9994           0
     10049 WT1      3148     TIP3     H1       HT       0.417000        1.0080           0
     10050 WT1      3148     TIP3     H2       HT       0.417000        1.0080           0
     10051 WT1      3149     TIP3     OH2      OT      -0.834000       15.9994           0
     10052 WT1      3149     TIP3     H1       HT       0.417000        1.0080           0
     10053 WT1      3149     TIP3     H2       HT       0.417000        1.0080           0
     10054 WT1      3150     TIP3     OH2      OT      -0.834000       15.9994           0
     10055 WT1      3150     TIP3     H1       HT       0.417000        1.0080           0
     10056 WT1      3150     TIP3     H2       HT       0.417000        1.0080           0
     10057 WT1      3152     TIP3     OH2      OT      -0.834000       15.9994           0
     10058 WT1      3152     TIP3     H1       HT       0.417000        1.0080           0
     10059 WT1      3152     TIP3     H2       HT       0.417000        1.0080           0
     10060 WT1      3153     TIP3     OH2      OT      -0.834000       15.9994           0
     10061 WT1      3153     TIP3     H1       HT       0.417000        1.0080           0
     10062 WT1      3153     TIP3     H2       HT       0.417000        1.0080           0
     10063 WT1      3154     TIP3     OH2      OT      -0.834000       15.9994           0
     10064 WT1      3154     TIP3     H1       HT       0.417000        1.0080           0
     10065 WT1      3154     TIP3     H2       HT       0.417000        1.0080           0
     10066 WT1      3155     TIP3     OH2      OT      -0.834000       15.9994           0
     10067 WT1      3155     TIP3     H1       HT       0.417000        1.0080           0
     10068 WT1      3155     TIP3     H2       HT       0.417000        1.0080           0
     10069 WT1      3156     TIP3     OH2      OT      -0.834000       15.9994           0
     10070 WT1      3156     TIP3     H1       HT       0.417000        1.0080           0
     10071 WT1      3156     TIP3     H2       HT       0.417000        1.0080           0
     10072 WT1      3157     TIP3     OH2      OT      -0.834000       15.9994           0
     10073 WT1      3157     TIP3     H1       HT       0.417000        1.0080           0
     10074 WT1      3157     TIP3     H2       HT       0.417000        1.0080           0
     10075 WT1      3158     TIP3     OH2      OT      -0.834000       15.9994           0
     10076 WT1      3158     TIP3     H1       HT       0.417000        1.0080           0
     10077 WT1      3158     TIP3     H2       HT       0.417000        1.0080           0
     10078 WT1      3159     TIP3     OH2      OT      -0.834000       15.9994           0
     10079 WT1      3159     TIP3     H1       HT       0.417000        1.0080           0
     10080 WT1      3159     TIP3     H2       HT       0.417000        1.0080           0
     10081 WT1      3160     TIP3     OH2      OT      -0.834000       15.9994           0
     10082 WT1      3160     TIP3     H1       HT       0.417000        1.0080           0
     10083 WT1      3160     TIP3     H2       HT       0.417000        1.0080           0
     10084 WT1      3161     TIP3     OH2      OT      -0.834000       15.9994           0
     10085 WT1      3161     TIP3     H1       HT       0.417000        1.0080           0
     10086 WT1      3161     TIP3     H2       HT       0.417000        1.0080           0
     10087 WT1      3163     TIP3     OH2      OT      -0.834000       15.9994           0
     10088 WT1      3163     TIP3     H1       HT       0.417000        1.0080           0
     10089 WT1      3163     TIP3     H2       HT       0.417000        1.0080           0
     10090 WT1      3164     TIP3     OH2      OT      -0.834000       15.9994           0
     10091 WT1      3164     TIP3     H1       HT       0.417000        1.0080           0
     10092 WT1      3164     TIP3     H2       HT       0.417000        1.0080           0
     10093 WT1      3165     TIP3     OH2      OT      -0.834000       15.9994           0
     10094 WT1      3165     TIP3     H1       HT       0.417000        1.0080           0
     10095 WT1      3165     TIP3     H2       HT       0.417000        1.0080           0
     10096 WT1      3166     TIP3     OH2      OT      -0.834000       15.9994           0
     10097 WT1      3166     TIP3     H1       HT       0.417000        1.0080           0
     10098 WT1      3166     TIP3     H2       HT       0.417000        1.0080           0
     10099 WT1      3167     TIP3     OH2      OT      -0.834000       15.9994           0
     10100 WT1      3167     TIP3     H1       HT       0.417000        1.0080           0
     10101 WT1      3167     TIP3     H2       HT       0.417000        1.0080           0
     10102 WT1      3168     TIP3     OH2      OT      -0.834000       15.9994           0
     10103 WT1      3168     TIP3     H1       HT       0.417000        1.0080           0
     10104 WT1      3168     TIP3     H2       HT       0.417000        1.0080           0
     10105 WT1      3169     TIP3     OH2      OT      -0.834000       15.9994           0
     10106 WT1      3169     TIP3     H1       HT       0.417000        1.0080           0
     10107 WT1      3169     TIP3     H2       HT       0.417000        1.0080           0
     10108 WT1      3170     TIP3     OH2      OT      -0.834000       15.9994           0
     10109 WT1      3170     TIP3     H1       HT       0.417000        1.0080           0
     10110 WT1      3170     TIP3     H2       HT       0.417000        1.0080           0
     10111 WT1      3171     TIP3     OH2      OT      -0.834000       15.9994           0
     10112 WT1      3171     TIP3     H1       HT       0.417000        1.0080           0
     10113 WT1      3171     TIP3     H2       HT       0.417000        1.0080           0
     10114 WT1      3172     TIP3     OH2      OT      -0.834000       15.9994           0
     10115 WT1      3172     TIP3     H1       HT       0.417000        1.0080           0
     10116 WT1      3172     TIP3     H2       HT       0.417000        1.0080           0
     10117 WT1      3173     TIP3     OH2      OT      -0.834000       15.9994           0
     10118 WT1      3173     TIP3     H1       HT       0.417000        1.0080           0
     10119 WT1      3173     TIP3     H2       HT       0.417000        1.0080           0
     10120 WT1      3174     TIP3     OH2      OT      -0.834000       15.9994           0
     10121 WT1      3174     TIP3     H1       HT       0.417000        1.0080           0
     10122 WT1      3174     TIP3     H2       HT       0.417000        1.0080           0
     10123 WT1      3175     TIP3     OH2      OT      -0.834000       15.9994           0
     10124 WT1      3175     TIP3     H1       HT       0.417000        1.0080           0
     10125 WT1      3175     TIP3     H2       HT       0.417000        1.0080           0
     10126 WT1      3176     TIP3     OH2      OT      -0.834000       15.9994           0
     10127 WT1      3176     TIP3     H1       HT       0.417000        1.0080           0
     10128 WT1      3176     TIP3     H2       HT       0.417000        1.0080           0
     10129 WT1      3177     TIP3     OH2      OT      -0.834000       15.9994           0
     10130 WT1      3177     TIP3     H1       HT       0.417000        1.0080           0
     10131 WT1      3177     TIP3     H2       HT       0.417000        1.0080           0
     10132 WT1      3178     TIP3     OH2      OT      -0.834000       15.9994           0
     10133 WT1      3178     TIP3     H1       HT       0.417000        1.0080           0
     10134 WT1      3178     TIP3     H2       HT       0.417000        1.0080           0
     10135 WT1      3179     TIP3     OH2      OT      -0.834000       15.9994           0
     10136 WT1      3179     TIP3     H1       HT       0.417000        1.0080           0
     10137 WT1      3179     TIP3     H2       HT       0.417000        1.0080           0
     10138 WT1      3180     TIP3     OH2      OT      -0.834000       15.9994           0
     10139 WT1      3180     TIP3     H1       HT       0.417000        1.0080           0
     10140 WT1      3180     TIP3     H2       HT       0.417000        1.0080           0
     10141 WT1      3181     TIP3     OH2      OT      -0.834000       15.9994           0
     10142 WT1      3181     TIP3     H1       HT       0.417000        1.0080           0
     10143 WT1      3181     TIP3     H2       HT       0.417000        1.0080           0
     10144 WT1      3182     TIP3     OH2      OT      -0.834000       15.9994           0
     10145 WT1      3182     TIP3     H1       HT       0.417000        1.0080           0
     10146 WT1      3182     TIP3     H2       HT       0.417000        1.0080           0
     10147 WT1      3183     TIP3     OH2      OT      -0.834000       15.9994           0
     10148 WT1      3183     TIP3     H1       HT       0.417000        1.0080           0
     10149 WT1      3183     TIP3     H2       HT       0.417000        1.0080           0
     10150 WT1      3184     TIP3     OH2      OT      -0.834000       15.9994           0
     10151 WT1      3184     TIP3     H1       HT       0.417000        1.0080           0
     10152 WT1      3184     TIP3     H2       HT       0.417000        1.0080           0
     10153 WT1      3185     TIP3     OH2      OT      -0.834000       15.9994           0
     10154 WT1      3185     TIP3     H1       HT       0.417000        1.0080           0
     10155 WT1      3185     TIP3     H2       HT       0.417000        1.0080           0
     10156 WT1      3186     TIP3     OH2      OT      -0.834000       15.9994           0
     10157 WT1      3186     TIP3     H1       HT       0.417000        1.0080           0
     10158 WT1      3186     TIP3     H2       HT       0.417000        1.0080           0
     10159 WT1      3187     TIP3     OH2      OT      -0.834000       15.9994           0
     10160 WT1      3187     TIP3     H1       HT       0.417000        1.0080           0
     10161 WT1      3187     TIP3     H2       HT       0.417000        1.0080           0
     10162 WT1      3188     TIP3     OH2      OT      -0.834000       15.9994           0
     10163 WT1      3188     TIP3     H1       HT       0.417000        1.0080           0
     10164 WT1      3188     TIP3     H2       HT       0.417000        1.0080           0
     10165 WT1      3189     TIP3     OH2      OT      -0.834000       15.9994           0
     10166 WT1      3189     TIP3     H1       HT       0.417000        1.0080           0
     10167 WT1      3189     TIP3     H2       HT       0.417000        1.0080           0
     10168 WT1      3190     TIP3     OH2      OT      -0.834000       15.9994           0
     10169 WT1      3190     TIP3     H1       HT       0.417000        1.0080           0
     10170 WT1      3190     TIP3     H2       HT       0.417000        1.0080           0
     10171 WT1      3191     TIP3     OH2      OT      -0.834000       15.9994           0
     10172 WT1      3191     TIP3     H1       HT       0.417000        1.0080           0
     10173 WT1      3191     TIP3     H2       HT       0.417000        1.0080           0
     10174 WT1      3192     TIP3     OH2      OT      -0.834000       15.9994           0
     10175 WT1      3192     TIP3     H1       HT       0.417000        1.0080           0
     10176 WT1      3192     TIP3     H2       HT       0.417000        1.0080           0
     10177 WT1      3193     TIP3     OH2      OT      -0.834000       15.9994           0
     10178 WT1      3193     TIP3     H1       HT       0.417000        1.0080           0
     10179 WT1      3193     TIP3     H2       HT       0.417000        1.0080           0
     10180 WT1      3194     TIP3     OH2      OT      -0.834000       15.9994           0
     10181 WT1      3194     TIP3     H1       HT       0.417000        1.0080           0
     10182 WT1      3194     TIP3     H2       HT       0.417000        1.0080           0
     10183 WT1      3195     TIP3     OH2      OT      -0.834000       15.9994           0
     10184 WT1      3195     TIP3     H1       HT       0.417000        1.0080           0
     10185 WT1      3195     TIP3     H2       HT       0.417000        1.0080           0
     10186 WT1      3196     TIP3     OH2      OT      -0.834000       15.9994           0
     10187 WT1      3196     TIP3     H1       HT       0.417000        1.0080           0
     10188 WT1      3196     TIP3     H2       HT       0.417000        1.0080           0
     10189 WT1      3197     TIP3     OH2      OT      -0.834000       15.9994           0
     10190 WT1      3197     TIP3     H1       HT       0.417000        1.0080           0
     10191 WT1      3197     TIP3     H2       HT       0.417000        1.0080           0
     10192 WT1      3198     TIP3     OH2      OT      -0.834000       15.9994           0
     10193 WT1      3198     TIP3     H1       HT       0.417000        1.0080           0
     10194 WT1      3198     TIP3     H2       HT       0.417000        1.0080           0
     10195 WT1      3199     TIP3     OH2      OT      -0.834000       15.9994           0
     10196 WT1      3199     TIP3     H1       HT       0.417000        1.0080           0
     10197 WT1      3199     TIP3     H2       HT       0.417000        1.0080           0
     10198 WT1      3200     TIP3     OH2      OT      -0.834000       15.9994           0
     10199 WT1      3200     TIP3     H1       HT       0.417000        1.0080           0
     10200 WT1      3200     TIP3     H2       HT       0.417000        1.0080           0
     10201 WT1      3201     TIP3     OH2      OT      -0.834000       15.9994           0
     10202 WT1      3201     TIP3     H1       HT       0.417000        1.0080           0
     10203 WT1      3201     TIP3     H2       HT       0.417000        1.0080           0
     10204 WT1      3202     TIP3     OH2      OT      -0.834000       15.9994           0
     10205 WT1      3202     TIP3     H1       HT       0.417000        1.0080           0
     10206 WT1      3202     TIP3     H2       HT       0.417000        1.0080           0
     10207 WT1      3203     TIP3     OH2      OT      -0.834000       15.9994           0
     10208 WT1      3203     TIP3     H1       HT       0.417000        1.0080           0
     10209 WT1      3203     TIP3     H2       HT       0.417000        1.0080           0
     10210 WT1      3204     TIP3     OH2      OT      -0.834000       15.9994           0
     10211 WT1      3204     TIP3     H1       HT       0.417000        1.0080           0
     10212 WT1      3204     TIP3     H2       HT       0.417000        1.0080           0
     10213 WT1      3205     TIP3     OH2      OT      -0.834000       15.9994           0
     10214 WT1      3205     TIP3     H1       HT       0.417000        1.0080           0
     10215 WT1      3205     TIP3     H2       HT       0.417000        1.0080           0
     10216 WT1      3206     TIP3     OH2      OT      -0.834000       15.9994           0
     10217 WT1      3206     TIP3     H1       HT       0.417000        1.0080           0
     10218 WT1      3206     TIP3     H2       HT       0.417000        1.0080           0
     10219 WT1      3207     TIP3     OH2      OT      -0.834000       15.9994           0
     10220 WT1      3207     TIP3     H1       HT       0.417000        1.0080           0
     10221 WT1      3207     TIP3     H2       HT       0.417000        1.0080           0
     10222 WT1      3208     TIP3     OH2      OT      -0.834000       15.9994           0
     10223 WT1      3208     TIP3     H1       HT       0.417000        1.0080           0
     10224 WT1      3208     TIP3     H2       HT       0.417000        1.0080           0
     10225 WT1      3209     TIP3     OH2      OT      -0.834000       15.9994           0
     10226 WT1      3209     TIP3     H1       HT       0.417000        1.0080           0
     10227 WT1      3209     TIP3     H2       HT       0.417000        1.0080           0
     10228 WT1      3210     TIP3     OH2      OT      -0.834000       15.9994           0
     10229 WT1      3210     TIP3     H1       HT       0.417000        1.0080           0
     10230 WT1      3210     TIP3     H2       HT       0.417000        1.0080           0
     10231 WT1      3211     TIP3     OH2      OT      -0.834000       15.9994           0
     10232 WT1      3211     TIP3     H1       HT       0.417000        1.0080           0
     10233 WT1      3211     TIP3     H2       HT       0.417000        1.0080           0
     10234 WT1      3212     TIP3     OH2      OT      -0.834000       15.9994           0
     10235 WT1      3212     TIP3     H1       HT       0.417000        1.0080           0
     10236 WT1      3212     TIP3     H2       HT       0.417000        1.0080           0
     10237 WT1      3213     TIP3     OH2      OT      -0.834000       15.9994           0
     10238 WT1      3213     TIP3     H1       HT       0.417000        1.0080           0
     10239 WT1      3213     TIP3     H2       HT       0.417000        1.0080           0
     10240 WT1      3214     TIP3     OH2      OT      -0.834000       15.9994           0
     10241 WT1      3214     TIP3     H1       HT       0.417000        1.0080           0
     10242 WT1      3214     TIP3     H2       HT       0.417000        1.0080           0
     10243 WT1      3215     TIP3     OH2      OT      -0.834000       15.9994           0
     10244 WT1      3215     TIP3     H1       HT       0.417000        1.0080           0
     10245 WT1      3215     TIP3     H2       HT       0.417000        1.0080           0
     10246 WT1      3216     TIP3     OH2      OT      -0.834000       15.9994           0
     10247 WT1      3216     TIP3     H1       HT       0.417000        1.0080           0
     10248 WT1      3216     TIP3     H2       HT       0.417000        1.0080           0
     10249 WT1      3217     TIP3     OH2      OT      -0.834000       15.9994           0
     10250 WT1      3217     TIP3     H1       HT       0.417000        1.0080           0
     10251 WT1      3217     TIP3     H2       HT       0.417000        1.0080           0
     10252 WT1      3218     TIP3     OH2      OT      -0.834000       15.9994           0
     10253 WT1      3218     TIP3     H1       HT       0.417000        1.0080           0
     10254 WT1      3218     TIP3     H2       HT       0.417000        1.0080           0
     10255 WT1      3219     TIP3     OH2      OT      -0.834000       15.9994           0
     10256 WT1      3219     TIP3     H1       HT       0.417000        1.0080           0
     10257 WT1      3219     TIP3     H2       HT       0.417000        1.0080           0
     10258 WT1      3220     TIP3     OH2      OT      -0.834000       15.9994           0
     10259 WT1      3220     TIP3     H1       HT       0.417000        1.0080           0
     10260 WT1      3220     TIP3     H2       HT       0.417000        1.0080           0
     10261 WT1      3221     TIP3     OH2      OT      -0.834000       15.9994           0
     10262 WT1      3221     TIP3     H1       HT       0.417000        1.0080           0
     10263 WT1      3221     TIP3     H2       HT       0.417000        1.0080           0
     10264 WT1      3222     TIP3     OH2      OT      -0.834000       15.9994           0
     10265 WT1      3222     TIP3     H1       HT       0.417000        1.0080           0
     10266 WT1      3222     TIP3     H2       HT       0.417000        1.0080           0
     10267 WT1      3223     TIP3     OH2      OT      -0.834000       15.9994           0
     10268 WT1      3223     TIP3     H1       HT       0.417000        1.0080           0
     10269 WT1      3223     TIP3     H2       HT       0.417000        1.0080           0
     10270 WT1      3224     TIP3     OH2      OT      -0.834000       15.9994           0
     10271 WT1      3224     TIP3     H1       HT       0.417000        1.0080           0
     10272 WT1      3224     TIP3     H2       HT       0.417000        1.0080           0
     10273 WT1      3225     TIP3     OH2      OT      -0.834000       15.9994           0
     10274 WT1      3225     TIP3     H1       HT       0.417000        1.0080           0
     10275 WT1      3225     TIP3     H2       HT       0.417000        1.0080           0
     10276 WT1      3226     TIP3     OH2      OT      -0.834000       15.9994           0
     10277 WT1      3226     TIP3     H1       HT       0.417000        1.0080           0
     10278 WT1      3226     TIP3     H2       HT       0.417000        1.0080           0
     10279 WT1      3227     TIP3     OH2      OT      -0.834000       15.9994           0
     10280 WT1      3227     TIP3     H1       HT       0.417000        1.0080           0
     10281 WT1      3227     TIP3     H2       HT       0.417000        1.0080           0
     10282 WT1      3228     TIP3     OH2      OT      -0.834000       15.9994           0
     10283 WT1      3228     TIP3     H1       HT       0.417000        1.0080           0
     10284 WT1      3228     TIP3     H2       HT       0.417000        1.0080           0
     10285 WT1      3229     TIP3     OH2      OT      -0.834000       15.9994           0
     10286 WT1      3229     TIP3     H1       HT       0.417000        1.0080           0
     10287 WT1      3229     TIP3     H2       HT       0.417000        1.0080           0
     10288 WT1      3230     TIP3     OH2      OT      -0.834000       15.9994           0
     10289 WT1      3230     TIP3     H1       HT       0.417000        1.0080           0
     10290 WT1      3230     TIP3     H2       HT       0.417000        1.0080           0
     10291 WT1      3231     TIP3     OH2      OT      -0.834000       15.9994           0
     10292 WT1      3231     TIP3     H1       HT       0.417000        1.0080           0
     10293 WT1      3231     TIP3     H2       HT       0.417000        1.0080           0
     10294 WT1      3232     TIP3     OH2      OT      -0.834000       15.9994           0
     10295 WT1      3232     TIP3     H1       HT       0.417000        1.0080           0
     10296 WT1      3232     TIP3     H2       HT       0.417000        1.0080           0
     10297 WT1      3233     TIP3     OH2      OT      -0.834000       15.9994           0
     10298 WT1      3233     TIP3     H1       HT       0.417000        1.0080           0
     10299 WT1      3233     TIP3     H2       HT       0.417000        1.0080           0
     10300 WT1      3234     TIP3     OH2      OT      -0.834000       15.9994           0
     10301 WT1      3234     TIP3     H1       HT       0.417000        1.0080           0
     10302 WT1      3234     TIP3     H2       HT       0.417000        1.0080           0
     10303 WT1      3235     TIP3     OH2      OT      -0.834000       15.9994           0
     10304 WT1      3235     TIP3     H1       HT       0.417000        1.0080           0
     10305 WT1      3235     TIP3     H2       HT       0.417000        1.0080           0
     10306 WT1      3236     TIP3     OH2      OT      -0.834000       15.9994           0
     10307 WT1      3236     TIP3     H1       HT       0.417000        1.0080           0
     10308 WT1      3236     TIP3     H2       HT       0.417000        1.0080           0
     10309 WT1      3237     TIP3     OH2      OT      -0.834000       15.9994           0
     10310 WT1      3237     TIP3     H1       HT       0.417000        1.0080           0
     10311 WT1      3237     TIP3     H2       HT       0.417000        1.0080           0
     10312 WT1      3238     TIP3     OH2      OT      -0.834000       15.9994           0
     10313 WT1      3238     TIP3     H1       HT       0.417000        1.0080           0
     10314 WT1      3238     TIP3     H2       HT       0.417000        1.0080           0
     10315 WT1      3239     TIP3     OH2      OT      -0.834000       15.9994           0
     10316 WT1      3239     TIP3     H1       HT       0.417000        1.0080           0
     10317 WT1      3239     TIP3     H2       HT       0.417000        1.0080           0
     10318 WT1      3240     TIP3     OH2      OT      -0.834000       15.9994           0
     10319 WT1      3240     TIP3     H1       HT       0.417000        1.0080           0
     10320 WT1      3240     TIP3     H2       HT       0.417000        1.0080           0
     10321 WT1      3241     TIP3     OH2      OT      -0.834000       15.9994           0
     10322 WT1      3241     TIP3     H1       HT       0.417000        1.0080           0
     10323 WT1      3241     TIP3     H2       HT       0.417000        1.0080           0
     10324 WT1      3242     TIP3     OH2      OT      -0.834000       15.9994           0
     10325 WT1      3242     TIP3     H1       HT       0.417000        1.0080           0
     10326 WT1      3242     TIP3     H2       HT       0.417000        1.0080           0
     10327 WT1      3243     TIP3     OH2      OT      -0.834000       15.9994           0
     10328 WT1      3243     TIP3     H1       HT       0.417000        1.0080           0
     10329 WT1      3243     TIP3     H2       HT       0.417000        1.0080           0
     10330 WT1      3244     TIP3     OH2      OT      -0.834000       15.9994           0
     10331 WT1      3244     TIP3     H1       HT       0.417000        1.0080           0
     10332 WT1      3244     TIP3     H2       HT       0.417000        1.0080           0
     10333 WT1      3245     TIP3     OH2      OT      -0.834000       15.9994           0
     10334 WT1      3245     TIP3     H1       HT       0.417000        1.0080           0
     10335 WT1      3245     TIP3     H2       HT       0.417000        1.0080           0
     10336 WT1      3246     TIP3     OH2      OT      -0.834000       15.9994           0
     10337 WT1      3246     TIP3     H1       HT       0.417000        1.0080           0
     10338 WT1      3246     TIP3     H2       HT       0.417000        1.0080           0
     10339 WT1      3247     TIP3     OH2      OT      -0.834000       15.9994           0
     10340 WT1      3247     TIP3     H1       HT       0.417000        1.0080           0
     10341 WT1      3247     TIP3     H2       HT       0.417000        1.0080           0
     10342 WT1      3248     TIP3     OH2      OT      -0.834000       15.9994           0
     10343 WT1      3248     TIP3     H1       HT       0.417000        1.0080           0
     10344 WT1      3248     TIP3     H2       HT       0.417000        1.0080           0
     10345 WT1      3249     TIP3     OH2      OT      -0.834000       15.9994           0
     10346 WT1      3249     TIP3     H1       HT       0.417000        1.0080           0
     10347 WT1      3249     TIP3     H2       HT       0.417000        1.0080           0
     10348 WT1      3250     TIP3     OH2      OT      -0.834000       15.9994           0
     10349 WT1      3250     TIP3     H1       HT       0.417000        1.0080           0
     10350 WT1      3250     TIP3     H2       HT       0.417000        1.0080           0
     10351 WT1      3251     TIP3     OH2      OT      -0.834000       15.9994           0
     10352 WT1      3251     TIP3     H1       HT       0.417000        1.0080           0
     10353 WT1      3251     TIP3     H2       HT       0.417000        1.0080           0
     10354 WT1      3252     TIP3     OH2      OT      -0.834000       15.9994           0
     10355 WT1      3252     TIP3     H1       HT       0.417000        1.0080           0
     10356 WT1      3252     TIP3     H2       HT       0.417000        1.0080           0
     10357 WT1      3253     TIP3     OH2      OT      -0.834000       15.9994           0
     10358 WT1      3253     TIP3     H1       HT       0.417000        1.0080           0
     10359 WT1      3253     TIP3     H2       HT       0.417000        1.0080           0
     10360 WT1      3254     TIP3     OH2      OT      -0.834000       15.9994           0
     10361 WT1      3254     TIP3     H1       HT       0.417000        1.0080           0
     10362 WT1      3254     TIP3     H2       HT       0.417000        1.0080           0
     10363 WT1      3255     TIP3     OH2      OT      -0.834000       15.9994           0
     10364 WT1      3255     TIP3     H1       HT       0.417000        1.0080           0
     10365 WT1      3255     TIP3     H2       HT       0.417000        1.0080           0
     10366 WT1      3256     TIP3     OH2      OT      -0.834000       15.9994           0
     10367 WT1      3256     TIP3     H1       HT       0.417000        1.0080           0
     10368 WT1      3256     TIP3     H2       HT       0.417000        1.0080           0
     10369 WT1      3257     TIP3     OH2      OT      -0.834000       15.9994           0
     10370 WT1      3257     TIP3     H1       HT       0.417000        1.0080           0
     10371 WT1      3257     TIP3     H2       HT       0.417000        1.0080           0
     10372 WT1      3258     TIP3     OH2      OT      -0.834000       15.9994           0
     10373 WT1      3258     TIP3     H1       HT       0.417000        1.0080           0
     10374 WT1      3258     TIP3     H2       HT       0.417000        1.0080           0
     10375 WT1      3259     TIP3     OH2      OT      -0.834000       15.9994           0
     10376 WT1      3259     TIP3     H1       HT       0.417000        1.0080           0
     10377 WT1      3259     TIP3     H2       HT       0.417000        1.0080           0
     10378 WT1      3260     TIP3     OH2      OT      -0.834000       15.9994           0
     10379 WT1      3260     TIP3     H1       HT       0.417000        1.0080           0
     10380 WT1      3260     TIP3     H2       HT       0.417000        1.0080           0
     10381 WT1      3261     TIP3     OH2      OT      -0.834000       15.9994           0
     10382 WT1      3261     TIP3     H1       HT       0.417000        1.0080           0
     10383 WT1      3261     TIP3     H2       HT       0.417000        1.0080           0
     10384 WT1      3262     TIP3     OH2      OT      -0.834000       15.9994           0
     10385 WT1      3262     TIP3     H1       HT       0.417000        1.0080           0
     10386 WT1      3262     TIP3     H2       HT       0.417000        1.0080           0
     10387 WT1      3263     TIP3     OH2      OT      -0.834000       15.9994           0
     10388 WT1      3263     TIP3     H1       HT       0.417000        1.0080           0
     10389 WT1      3263     TIP3     H2       HT       0.417000        1.0080           0
     10390 WT1      3264     TIP3     OH2      OT      -0.834000       15.9994           0
     10391 WT1      3264     TIP3     H1       HT       0.417000        1.0080           0
     10392 WT1      3264     TIP3     H2       HT       0.417000        1.0080           0
     10393 WT1      3265     TIP3     OH2      OT      -0.834000       15.9994           0
     10394 WT1      3265     TIP3     H1       HT       0.417000        1.0080           0
     10395 WT1      3265     TIP3     H2       HT       0.417000        1.0080           0
     10396 WT1      3266     TIP3     OH2      OT      -0.834000       15.9994           0
     10397 WT1      3266     TIP3     H1       HT       0.417000        1.0080           0
     10398 WT1      3266     TIP3     H2       HT       0.417000        1.0080           0
     10399 WT1      3267     TIP3     OH2      OT      -0.834000       15.9994           0
     10400 WT1      3267     TIP3     H1       HT       0.417000        1.0080           0
     10401 WT1      3267     TIP3     H2       HT       0.417000        1.0080           0
     10402 WT1      3268     TIP3     OH2      OT      -0.834000       15.9994           0
     10403 WT1      3268     TIP3     H1       HT       0.417000        1.0080           0
     10404 WT1      3268     TIP3     H2       HT       0.417000        1.0080           0
     10405 WT1      3269     TIP3     OH2      OT      -0.834000       15.9994           0
     10406 WT1      3269     TIP3     H1       HT       0.417000        1.0080           0
     10407 WT1      3269     TIP3     H2       HT       0.417000        1.0080           0
     10408 WT1      3270     TIP3     OH2      OT      -0.834000       15.9994           0
     10409 WT1      3270     TIP3     H1       HT       0.417000        1.0080           0
     10410 WT1      3270     TIP3     H2       HT       0.417000        1.0080           0
     10411 WT1      3271     TIP3     OH2      OT      -0.834000       15.9994           0
     10412 WT1      3271     TIP3     H1       HT       0.417000        1.0080           0
     10413 WT1      3271     TIP3     H2       HT       0.417000        1.0080           0
     10414 WT1      3272     TIP3     OH2      OT      -0.834000       15.9994           0
     10415 WT1      3272     TIP3     H1       HT       0.417000        1.0080           0
     10416 WT1      3272     TIP3     H2       HT       0.417000        1.0080           0
     10417 WT1      3273     TIP3     OH2      OT      -0.834000       15.9994           0
     10418 WT1      3273     TIP3     H1       HT       0.417000        1.0080           0
     10419 WT1      3273     TIP3     H2       HT       0.417000        1.0080           0
     10420 WT1      3274     TIP3     OH2      OT      -0.834000       15.9994           0
     10421 WT1      3274     TIP3     H1       HT       0.417000        1.0080           0
     10422 WT1      3274     TIP3     H2       HT       0.417000        1.0080           0
     10423 WT1      3276     TIP3     OH2      OT      -0.834000       15.9994           0
     10424 WT1      3276     TIP3     H1       HT       0.417000        1.0080           0
     10425 WT1      3276     TIP3     H2       HT       0.417000        1.0080           0
     10426 WT1      3277     TIP3     OH2      OT      -0.834000       15.9994           0
     10427 WT1      3277     TIP3     H1       HT       0.417000        1.0080           0
     10428 WT1      3277     TIP3     H2       HT       0.417000        1.0080           0
     10429 WT1      3278     TIP3     OH2      OT      -0.834000       15.9994           0
     10430 WT1      3278     TIP3     H1       HT       0.417000        1.0080           0
     10431 WT1      3278     TIP3     H2       HT       0.417000        1.0080           0
     10432 WT1      3279     TIP3     OH2      OT      -0.834000       15.9994           0
     10433 WT1      3279     TIP3     H1       HT       0.417000        1.0080           0
     10434 WT1      3279     TIP3     H2       HT       0.417000        1.0080           0
     10435 WT1      3280     TIP3     OH2      OT      -0.834000       15.9994           0
     10436 WT1      3280     TIP3     H1       HT       0.417000        1.0080           0
     10437 WT1      3280     TIP3     H2       HT       0.417000        1.0080           0
     10438 WT1      3281     TIP3     OH2      OT      -0.834000       15.9994           0
     10439 WT1      3281     TIP3     H1       HT       0.417000        1.0080           0
     10440 WT1      3281     TIP3     H2       HT       0.417000        1.0080           0
     10441 WT1      3282     TIP3     OH2      OT      -0.834000       15.9994           0
     10442 WT1      3282     TIP3     H1       HT       0.417000        1.0080           0
     10443 WT1      3282     TIP3     H2       HT       0.417000        1.0080           0
     10444 WT1      3283     TIP3     OH2      OT      -0.834000       15.9994           0
     10445 WT1      3283     TIP3     H1       HT       0.417000        1.0080           0
     10446 WT1      3283     TIP3     H2       HT       0.417000        1.0080           0
     10447 WT1      3284     TIP3     OH2      OT      -0.834000       15.9994           0
     10448 WT1      3284     TIP3     H1       HT       0.417000        1.0080           0
     10449 WT1      3284     TIP3     H2       HT       0.417000        1.0080           0
     10450 WT1      3285     TIP3     OH2      OT      -0.834000       15.9994           0
     10451 WT1      3285     TIP3     H1       HT       0.417000        1.0080           0
     10452 WT1      3285     TIP3     H2       HT       0.417000        1.0080           0
     10453 WT1      3286     TIP3     OH2      OT      -0.834000       15.9994           0
     10454 WT1      3286     TIP3     H1       HT       0.417000        1.0080           0
     10455 WT1      3286     TIP3     H2       HT       0.417000        1.0080           0
     10456 WT1      3287     TIP3     OH2      OT      -0.834000       15.9994           0
     10457 WT1      3287     TIP3     H1       HT       0.417000        1.0080           0
     10458 WT1      3287     TIP3     H2       HT       0.417000        1.0080           0
     10459 WT1      3288     TIP3     OH2      OT      -0.834000       15.9994           0
     10460 WT1      3288     TIP3     H1       HT       0.417000        1.0080           0
     10461 WT1      3288     TIP3     H2       HT       0.417000        1.0080           0
     10462 WT1      3289     TIP3     OH2      OT      -0.834000       15.9994           0
     10463 WT1      3289     TIP3     H1       HT       0.417000        1.0080           0
     10464 WT1      3289     TIP3     H2       HT       0.417000        1.0080           0
     10465 WT1      3290     TIP3     OH2      OT      -0.834000       15.9994           0
     10466 WT1      3290     TIP3     H1       HT       0.417000        1.0080           0
     10467 WT1      3290     TIP3     H2       HT       0.417000        1.0080           0
     10468 WT1      3291     TIP3     OH2      OT      -0.834000       15.9994           0
     10469 WT1      3291     TIP3     H1       HT       0.417000        1.0080           0
     10470 WT1      3291     TIP3     H2       HT       0.417000        1.0080           0
     10471 WT1      3292     TIP3     OH2      OT      -0.834000       15.9994           0
     10472 WT1      3292     TIP3     H1       HT       0.417000        1.0080           0
     10473 WT1      3292     TIP3     H2       HT       0.417000        1.0080           0
     10474 WT1      3293     TIP3     OH2      OT      -0.834000       15.9994           0
     10475 WT1      3293     TIP3     H1       HT       0.417000        1.0080           0
     10476 WT1      3293     TIP3     H2       HT       0.417000        1.0080           0
     10477 WT1      3294     TIP3     OH2      OT      -0.834000       15.9994           0
     10478 WT1      3294     TIP3     H1       HT       0.417000        1.0080           0
     10479 WT1      3294     TIP3     H2       HT       0.417000        1.0080           0
     10480 WT1      3295     TIP3     OH2      OT      -0.834000       15.9994           0
     10481 WT1      3295     TIP3     H1       HT       0.417000        1.0080           0
     10482 WT1      3295     TIP3     H2       HT       0.417000        1.0080           0
     10483 WT1      3296     TIP3     OH2      OT      -0.834000       15.9994           0
     10484 WT1      3296     TIP3     H1       HT       0.417000        1.0080           0
     10485 WT1      3296     TIP3     H2       HT       0.417000        1.0080           0
     10486 WT1      3297     TIP3     OH2      OT      -0.834000       15.9994           0
     10487 WT1      3297     TIP3     H1       HT       0.417000        1.0080           0
     10488 WT1      3297     TIP3     H2       HT       0.417000        1.0080           0
     10489 WT1      3298     TIP3     OH2      OT      -0.834000       15.9994           0
     10490 WT1      3298     TIP3     H1       HT       0.417000        1.0080           0
     10491 WT1      3298     TIP3     H2       HT       0.417000        1.0080           0
     10492 WT1      3299     TIP3     OH2      OT      -0.834000       15.9994           0
     10493 WT1      3299     TIP3     H1       HT       0.417000        1.0080           0
     10494 WT1      3299     TIP3     H2       HT       0.417000        1.0080           0
     10495 WT1      3300     TIP3     OH2      OT      -0.834000       15.9994           0
     10496 WT1      3300     TIP3     H1       HT       0.417000        1.0080           0
     10497 WT1      3300     TIP3     H2       HT       0.417000        1.0080           0
     10498 WT1      3301     TIP3     OH2      OT      -0.834000       15.9994           0
     10499 WT1      3301     TIP3     H1       HT       0.417000        1.0080           0
     10500 WT1      3301     TIP3     H2       HT       0.417000        1.0080           0
     10501 WT1      3302     TIP3     OH2      OT      -0.834000       15.9994           0
     10502 WT1      3302     TIP3     H1       HT       0.417000        1.0080           0
     10503 WT1      3302     TIP3     H2       HT       0.417000        1.0080           0
     10504 WT1      3303     TIP3     OH2      OT      -0.834000       15.9994           0
     10505 WT1      3303     TIP3     H1       HT       0.417000        1.0080           0
     10506 WT1      3303     TIP3     H2       HT       0.417000        1.0080           0
     10507 WT1      3304     TIP3     OH2      OT      -0.834000       15.9994           0
     10508 WT1      3304     TIP3     H1       HT       0.417000        1.0080           0
     10509 WT1      3304     TIP3     H2       HT       0.417000        1.0080           0
     10510 WT1      3305     TIP3     OH2      OT      -0.834000       15.9994           0
     10511 WT1      3305     TIP3     H1       HT       0.417000        1.0080           0
     10512 WT1      3305     TIP3     H2       HT       0.417000        1.0080           0
     10513 WT1      3306     TIP3     OH2      OT      -0.834000       15.9994           0
     10514 WT1      3306     TIP3     H1       HT       0.417000        1.0080           0
     10515 WT1      3306     TIP3     H2       HT       0.417000        1.0080           0
     10516 WT1      3307     TIP3     OH2      OT      -0.834000       15.9994           0
     10517 WT1      3307     TIP3     H1       HT       0.417000        1.0080           0
     10518 WT1      3307     TIP3     H2       HT       0.417000        1.0080           0
     10519 WT1      3308     TIP3     OH2      OT      -0.834000       15.9994           0
     10520 WT1      3308     TIP3     H1       HT       0.417000        1.0080           0
     10521 WT1      3308     TIP3     H2       HT       0.417000        1.0080           0
     10522 WT1      3309     TIP3     OH2      OT      -0.834000       15.9994           0
     10523 WT1      3309     TIP3     H1       HT       0.417000        1.0080           0
     10524 WT1      3309     TIP3     H2       HT       0.417000        1.0080           0
     10525 WT1      3310     TIP3     OH2      OT      -0.834000       15.9994           0
     10526 WT1      3310     TIP3     H1       HT       0.417000        1.0080           0
     10527 WT1      3310     TIP3     H2       HT       0.417000        1.0080           0
     10528 WT1      3311     TIP3     OH2      OT      -0.834000       15.9994           0
     10529 WT1      3311     TIP3     H1       HT       0.417000        1.0080           0
     10530 WT1      3311     TIP3     H2       HT       0.417000        1.0080           0
     10531 WT1      3312     TIP3     OH2      OT      -0.834000       15.9994           0
     10532 WT1      3312     TIP3     H1       HT       0.417000        1.0080           0
     10533 WT1      3312     TIP3     H2       HT       0.417000        1.0080           0
     10534 WT1      3313     TIP3     OH2      OT      -0.834000       15.9994           0
     10535 WT1      3313     TIP3     H1       HT       0.417000        1.0080           0
     10536 WT1      3313     TIP3     H2       HT       0.417000        1.0080           0
     10537 WT1      3314     TIP3     OH2      OT      -0.834000       15.9994           0
     10538 WT1      3314     TIP3     H1       HT       0.417000        1.0080           0
     10539 WT1      3314     TIP3     H2       HT       0.417000        1.0080           0
     10540 WT1      3315     TIP3     OH2      OT      -0.834000       15.9994           0
     10541 WT1      3315     TIP3     H1       HT       0.417000        1.0080           0
     10542 WT1      3315     TIP3     H2       HT       0.417000        1.0080           0
     10543 WT1      3316     TIP3     OH2      OT      -0.834000       15.9994           0
     10544 WT1      3316     TIP3     H1       HT       0.417000        1.0080           0
     10545 WT1      3316     TIP3     H2       HT       0.417000        1.0080           0
     10546 WT1      3317     TIP3     OH2      OT      -0.834000       15.9994           0
     10547 WT1      3317     TIP3     H1       HT       0.417000        1.0080           0
     10548 WT1      3317     TIP3     H2       HT       0.417000        1.0080           0
     10549 WT1      3318     TIP3     OH2      OT      -0.834000       15.9994           0
     10550 WT1      3318     TIP3     H1       HT       0.417000        1.0080           0
     10551 WT1      3318     TIP3     H2       HT       0.417000        1.0080           0
     10552 WT1      3319     TIP3     OH2      OT      -0.834000       15.9994           0
     10553 WT1      3319     TIP3     H1       HT       0.417000        1.0080           0
     10554 WT1      3319     TIP3     H2       HT       0.417000        1.0080           0
     10555 WT1      3320     TIP3     OH2      OT      -0.834000       15.9994           0
     10556 WT1      3320     TIP3     H1       HT       0.417000        1.0080           0
     10557 WT1      3320     TIP3     H2       HT       0.417000        1.0080           0
     10558 WT1      3321     TIP3     OH2      OT      -0.834000       15.9994           0
     10559 WT1      3321     TIP3     H1       HT       0.417000        1.0080           0
     10560 WT1      3321     TIP3     H2       HT       0.417000        1.0080           0
     10561 WT1      3322     TIP3     OH2      OT      -0.834000       15.9994           0
     10562 WT1      3322     TIP3     H1       HT       0.417000        1.0080           0
     10563 WT1      3322     TIP3     H2       HT       0.417000        1.0080           0
     10564 WT1      3323     TIP3     OH2      OT      -0.834000       15.9994           0
     10565 WT1      3323     TIP3     H1       HT       0.417000        1.0080           0
     10566 WT1      3323     TIP3     H2       HT       0.417000        1.0080           0
     10567 WT1      3324     TIP3     OH2      OT      -0.834000       15.9994           0
     10568 WT1      3324     TIP3     H1       HT       0.417000        1.0080           0
     10569 WT1      3324     TIP3     H2       HT       0.417000        1.0080           0
     10570 WT1      3325     TIP3     OH2      OT      -0.834000       15.9994           0
     10571 WT1      3325     TIP3     H1       HT       0.417000        1.0080           0
     10572 WT1      3325     TIP3     H2       HT       0.417000        1.0080           0
     10573 WT1      3326     TIP3     OH2      OT      -0.834000       15.9994           0
     10574 WT1      3326     TIP3     H1       HT       0.417000        1.0080           0
     10575 WT1      3326     TIP3     H2       HT       0.417000        1.0080           0
     10576 WT1      3327     TIP3     OH2      OT      -0.834000       15.9994           0
     10577 WT1      3327     TIP3     H1       HT       0.417000        1.0080           0
     10578 WT1      3327     TIP3     H2       HT       0.417000        1.0080           0
     10579 WT1      3328     TIP3     OH2      OT      -0.834000       15.9994           0
     10580 WT1      3328     TIP3     H1       HT       0.417000        1.0080           0
     10581 WT1      3328     TIP3     H2       HT       0.417000        1.0080           0
     10582 WT1      3329     TIP3     OH2      OT      -0.834000       15.9994           0
     10583 WT1      3329     TIP3     H1       HT       0.417000        1.0080           0
     10584 WT1      3329     TIP3     H2       HT       0.417000        1.0080           0
     10585 WT1      3330     TIP3     OH2      OT      -0.834000       15.9994           0
     10586 WT1      3330     TIP3     H1       HT       0.417000        1.0080           0
     10587 WT1      3330     TIP3     H2       HT       0.417000        1.0080           0
     10588 WT1      3331     TIP3     OH2      OT      -0.834000       15.9994           0
     10589 WT1      3331     TIP3     H1       HT       0.417000        1.0080           0
     10590 WT1      3331     TIP3     H2       HT       0.417000        1.0080           0
     10591 WT1      3332     TIP3     OH2      OT      -0.834000       15.9994           0
     10592 WT1      3332     TIP3     H1       HT       0.417000        1.0080           0
     10593 WT1      3332     TIP3     H2       HT       0.417000        1.0080           0
     10594 WT1      3333     TIP3     OH2      OT      -0.834000       15.9994           0
     10595 WT1      3333     TIP3     H1       HT       0.417000        1.0080           0
     10596 WT1      3333     TIP3     H2       HT       0.417000        1.0080           0
     10597 WT1      3334     TIP3     OH2      OT      -0.834000       15.9994           0
     10598 WT1      3334     TIP3     H1       HT       0.417000        1.0080           0
     10599 WT1      3334     TIP3     H2       HT       0.417000        1.0080           0
     10600 WT1      3335     TIP3     OH2      OT      -0.834000       15.9994           0
     10601 WT1      3335     TIP3     H1       HT       0.417000        1.0080           0
     10602 WT1      3335     TIP3     H2       HT       0.417000        1.0080           0
     10603 WT1      3336     TIP3     OH2      OT      -0.834000       15.9994           0
     10604 WT1      3336     TIP3     H1       HT       0.417000        1.0080           0
     10605 WT1      3336     TIP3     H2       HT       0.417000        1.0080           0
     10606 WT1      3337     TIP3     OH2      OT      -0.834000       15.9994           0
     10607 WT1      3337     TIP3     H1       HT       0.417000        1.0080           0
     10608 WT1      3337     TIP3     H2       HT       0.417000        1.0080           0
     10609 WT1      3338     TIP3     OH2      OT      -0.834000       15.9994           0
     10610 WT1      3338     TIP3     H1       HT       0.417000        1.0080           0
     10611 WT1      3338     TIP3     H2       HT       0.417000        1.0080           0
     10612 WT1      3339     TIP3     OH2      OT      -0.834000       15.9994           0
     10613 WT1      3339     TIP3     H1       HT       0.417000        1.0080           0
     10614 WT1      3339     TIP3     H2       HT       0.417000        1.0080           0
     10615 WT1      3340     TIP3     OH2      OT      -0.834000       15.9994           0
     10616 WT1      3340     TIP3     H1       HT       0.417000        1.0080           0
     10617 WT1      3340     TIP3     H2       HT       0.417000        1.0080           0
     10618 WT1      3341     TIP3     OH2      OT      -0.834000       15.9994           0
     10619 WT1      3341     TIP3     H1       HT       0.417000        1.0080           0
     10620 WT1      3341     TIP3     H2       HT       0.417000        1.0080           0
     10621 WT1      3342     TIP3     OH2      OT      -0.834000       15.9994           0
     10622 WT1      3342     TIP3     H1       HT       0.417000        1.0080           0
     10623 WT1      3342     TIP3     H2       HT       0.417000        1.0080           0
     10624 WT1      3343     TIP3     OH2      OT      -0.834000       15.9994           0
     10625 WT1      3343     TIP3     H1       HT       0.417000        1.0080           0
     10626 WT1      3343     TIP3     H2       HT       0.417000        1.0080           0
     10627 WT1      3344     TIP3     OH2      OT      -0.834000       15.9994           0
     10628 WT1      3344     TIP3     H1       HT       0.417000        1.0080           0
     10629 WT1      3344     TIP3     H2       HT       0.417000        1.0080           0
     10630 WT1      3345     TIP3     OH2      OT      -0.834000       15.9994           0
     10631 WT1      3345     TIP3     H1       HT       0.417000        1.0080           0
     10632 WT1      3345     TIP3     H2       HT       0.417000        1.0080           0
     10633 WT1      3346     TIP3     OH2      OT      -0.834000       15.9994           0
     10634 WT1      3346     TIP3     H1       HT       0.417000        1.0080           0
     10635 WT1      3346     TIP3     H2       HT       0.417000        1.0080           0
     10636 WT1      3347     TIP3     OH2      OT      -0.834000       15.9994           0
     10637 WT1      3347     TIP3     H1       HT       0.417000        1.0080           0
     10638 WT1      3347     TIP3     H2       HT       0.417000        1.0080           0
     10639 WT1      3348     TIP3     OH2      OT      -0.834000       15.9994           0
     10640 WT1      3348     TIP3     H1       HT       0.417000        1.0080           0
     10641 WT1      3348     TIP3     H2       HT       0.417000        1.0080           0
     10642 WT1      3349     TIP3     OH2      OT      -0.834000       15.9994           0
     10643 WT1      3349     TIP3     H1       HT       0.417000        1.0080           0
     10644 WT1      3349     TIP3     H2       HT       0.417000        1.0080           0
     10645 WT1      3350     TIP3     OH2      OT      -0.834000       15.9994           0
     10646 WT1      3350     TIP3     H1       HT       0.417000        1.0080           0
     10647 WT1      3350     TIP3     H2       HT       0.417000        1.0080           0
     10648 WT1      3351     TIP3     OH2      OT      -0.834000       15.9994           0
     10649 WT1      3351     TIP3     H1       HT       0.417000        1.0080           0
     10650 WT1      3351     TIP3     H2       HT       0.417000        1.0080           0
     10651 WT1      3352     TIP3     OH2      OT      -0.834000       15.9994           0
     10652 WT1      3352     TIP3     H1       HT       0.417000        1.0080           0
     10653 WT1      3352     TIP3     H2       HT       0.417000        1.0080           0
     10654 WT1      3353     TIP3     OH2      OT      -0.834000       15.9994           0
     10655 WT1      3353     TIP3     H1       HT       0.417000        1.0080           0
     10656 WT1      3353     TIP3     H2       HT       0.417000        1.0080           0
     10657 WT1      3354     TIP3     OH2      OT      -0.834000       15.9994           0
     10658 WT1      3354     TIP3     H1       HT       0.417000        1.0080           0
     10659 WT1      3354     TIP3     H2       HT       0.417000        1.0080           0
     10660 WT1      3355     TIP3     OH2      OT      -0.834000       15.9994           0
     10661 WT1      3355     TIP3     H1       HT       0.417000        1.0080           0
     10662 WT1      3355     TIP3     H2       HT       0.417000        1.0080           0
     10663 WT1      3356     TIP3     OH2      OT      -0.834000       15.9994           0
     10664 WT1      3356     TIP3     H1       HT       0.417000        1.0080           0
     10665 WT1      3356     TIP3     H2       HT       0.417000        1.0080           0
     10666 WT1      3357     TIP3     OH2      OT      -0.834000       15.9994           0
     10667 WT1      3357     TIP3     H1       HT       0.417000        1.0080           0
     10668 WT1      3357     TIP3     H2       HT       0.417000        1.0080           0
     10669 WT1      3358     TIP3     OH2      OT      -0.834000       15.9994           0
     10670 WT1      3358     TIP3     H1       HT       0.417000        1.0080           0
     10671 WT1      3358     TIP3     H2       HT       0.417000        1.0080           0
     10672 WT1      3359     TIP3     OH2      OT      -0.834000       15.9994           0
     10673 WT1      3359     TIP3     H1       HT       0.417000        1.0080           0
     10674 WT1      3359     TIP3     H2       HT       0.417000        1.0080           0
     10675 WT1      3360     TIP3     OH2      OT      -0.834000       15.9994           0
     10676 WT1      3360     TIP3     H1       HT       0.417000        1.0080           0
     10677 WT1      3360     TIP3     H2       HT       0.417000        1.0080           0
     10678 WT1      3361     TIP3     OH2      OT      -0.834000       15.9994           0
     10679 WT1      3361     TIP3     H1       HT       0.417000        1.0080           0
     10680 WT1      3361     TIP3     H2       HT       0.417000        1.0080           0
     10681 WT1      3362     TIP3     OH2      OT      -0.834000       15.9994           0
     10682 WT1      3362     TIP3     H1       HT       0.417000        1.0080           0
     10683 WT1      3362     TIP3     H2       HT       0.417000        1.0080           0
     10684 WT1      3363     TIP3     OH2      OT      -0.834000       15.9994           0
     10685 WT1      3363     TIP3     H1       HT       0.417000        1.0080           0
     10686 WT1      3363     TIP3     H2       HT       0.417000        1.0080           0
     10687 WT1      3364     TIP3     OH2      OT      -0.834000       15.9994           0
     10688 WT1      3364     TIP3     H1       HT       0.417000        1.0080           0
     10689 WT1      3364     TIP3     H2       HT       0.417000        1.0080           0
     10690 WT1      3365     TIP3     OH2      OT      -0.834000       15.9994           0
     10691 WT1      3365     TIP3     H1       HT       0.417000        1.0080           0
     10692 WT1      3365     TIP3     H2       HT       0.417000        1.0080           0
     10693 WT1      3366     TIP3     OH2      OT      -0.834000       15.9994           0
     10694 WT1      3366     TIP3     H1       HT       0.417000        1.0080           0
     10695 WT1      3366     TIP3     H2       HT       0.417000        1.0080           0
     10696 WT1      3367     TIP3     OH2      OT      -0.834000       15.9994           0
     10697 WT1      3367     TIP3     H1       HT       0.417000        1.0080           0
     10698 WT1      3367     TIP3     H2       HT       0.417000        1.0080           0
     10699 WT1      3368     TIP3     OH2      OT      -0.834000       15.9994           0
     10700 WT1      3368     TIP3     H1       HT       0.417000        1.0080           0
     10701 WT1      3368     TIP3     H2       HT       0.417000        1.0080           0
     10702 WT1      3369     TIP3     OH2      OT      -0.834000       15.9994           0
     10703 WT1      3369     TIP3     H1       HT       0.417000        1.0080           0
     10704 WT1      3369     TIP3     H2       HT       0.417000        1.0080           0
     10705 WT1      3370     TIP3     OH2      OT      -0.834000       15.9994           0
     10706 WT1      3370     TIP3     H1       HT       0.417000        1.0080           0
     10707 WT1      3370     TIP3     H2       HT       0.417000        1.0080           0
     10708 WT1      3371     TIP3     OH2      OT      -0.834000       15.9994           0
     10709 WT1      3371     TIP3     H1       HT       0.417000        1.0080           0
     10710 WT1      3371     TIP3     H2       HT       0.417000        1.0080           0
     10711 WT1      3372     TIP3     OH2      OT      -0.834000       15.9994           0
     10712 WT1      3372     TIP3     H1       HT       0.417000        1.0080           0
     10713 WT1      3372     TIP3     H2       HT       0.417000        1.0080           0
     10714 WT1      3373     TIP3     OH2      OT      -0.834000       15.9994           0
     10715 WT1      3373     TIP3     H1       HT       0.417000        1.0080           0
     10716 WT1      3373     TIP3     H2       HT       0.417000        1.0080           0
     10717 WT1      3374     TIP3     OH2      OT      -0.834000       15.9994           0
     10718 WT1      3374     TIP3     H1       HT       0.417000        1.0080           0
     10719 WT1      3374     TIP3     H2       HT       0.417000        1.0080           0
     10720 WT1      3375     TIP3     OH2      OT      -0.834000       15.9994           0
     10721 WT1      3375     TIP3     H1       HT       0.417000        1.0080           0
     10722 WT1      3375     TIP3     H2       HT       0.417000        1.0080           0
     10723 WT1      3376     TIP3     OH2      OT      -0.834000       15.9994           0
     10724 WT1      3376     TIP3     H1       HT       0.417000        1.0080           0
     10725 WT1      3376     TIP3     H2       HT       0.417000        1.0080           0
     10726 WT1      3377     TIP3     OH2      OT      -0.834000       15.9994           0
     10727 WT1      3377     TIP3     H1       HT       0.417000        1.0080           0
     10728 WT1      3377     TIP3     H2       HT       0.417000        1.0080           0
     10729 WT1      3378     TIP3     OH2      OT      -0.834000       15.9994           0
     10730 WT1      3378     TIP3     H1       HT       0.417000        1.0080           0
     10731 WT1      3378     TIP3     H2       HT       0.417000        1.0080           0
     10732 WT1      3379     TIP3     OH2      OT      -0.834000       15.9994           0
     10733 WT1      3379     TIP3     H1       HT       0.417000        1.0080           0
     10734 WT1      3379     TIP3     H2       HT       0.417000        1.0080           0
     10735 WT1      3380     TIP3     OH2      OT      -0.834000       15.9994           0
     10736 WT1      3380     TIP3     H1       HT       0.417000        1.0080           0
     10737 WT1      3380     TIP3     H2       HT       0.417000        1.0080           0
     10738 WT1      3381     TIP3     OH2      OT      -0.834000       15.9994           0
     10739 WT1      3381     TIP3     H1       HT       0.417000        1.0080           0
     10740 WT1      3381     TIP3     H2       HT       0.417000        1.0080           0
     10741 WT1      3382     TIP3     OH2      OT      -0.834000       15.9994           0
     10742 WT1      3382     TIP3     H1       HT       0.417000        1.0080           0
     10743 WT1      3382     TIP3     H2       HT       0.417000        1.0080           0
     10744 WT1      3383     TIP3     OH2      OT      -0.834000       15.9994           0
     10745 WT1      3383     TIP3     H1       HT       0.417000        1.0080           0
     10746 WT1      3383     TIP3     H2       HT       0.417000        1.0080           0
     10747 WT1      3384     TIP3     OH2      OT      -0.834000       15.9994           0
     10748 WT1      3384     TIP3     H1       HT       0.417000        1.0080           0
     10749 WT1      3384     TIP3     H2       HT       0.417000        1.0080           0
     10750 WT1      3385     TIP3     OH2      OT      -0.834000       15.9994           0
     10751 WT1      3385     TIP3     H1       HT       0.417000        1.0080           0
     10752 WT1      3385     TIP3     H2       HT       0.417000        1.0080           0
     10753 WT1      3386     TIP3     OH2      OT      -0.834000       15.9994           0
     10754 WT1      3386     TIP3     H1       HT       0.417000        1.0080           0
     10755 WT1      3386     TIP3     H2       HT       0.417000        1.0080           0
     10756 WT1      3387     TIP3     OH2      OT      -0.834000       15.9994           0
     10757 WT1      3387     TIP3     H1       HT       0.417000        1.0080           0
     10758 WT1      3387     TIP3     H2       HT       0.417000        1.0080           0
     10759 WT1      3388     TIP3     OH2      OT      -0.834000       15.9994           0
     10760 WT1      3388     TIP3     H1       HT       0.417000        1.0080           0
     10761 WT1      3388     TIP3     H2       HT       0.417000        1.0080           0
     10762 WT1      3389     TIP3     OH2      OT      -0.834000       15.9994           0
     10763 WT1      3389     TIP3     H1       HT       0.417000        1.0080           0
     10764 WT1      3389     TIP3     H2       HT       0.417000        1.0080           0
     10765 WT1      3390     TIP3     OH2      OT      -0.834000       15.9994           0
     10766 WT1      3390     TIP3     H1       HT       0.417000        1.0080           0
     10767 WT1      3390     TIP3     H2       HT       0.417000        1.0080           0
     10768 WT1      3391     TIP3     OH2      OT      -0.834000       15.9994           0
     10769 WT1      3391     TIP3     H1       HT       0.417000        1.0080           0
     10770 WT1      3391     TIP3     H2       HT       0.417000        1.0080           0
     10771 WT1      3392     TIP3     OH2      OT      -0.834000       15.9994           0
     10772 WT1      3392     TIP3     H1       HT       0.417000        1.0080           0
     10773 WT1      3392     TIP3     H2       HT       0.417000        1.0080           0
     10774 WT1      3393     TIP3     OH2      OT      -0.834000       15.9994           0
     10775 WT1      3393     TIP3     H1       HT       0.417000        1.0080           0
     10776 WT1      3393     TIP3     H2       HT       0.417000        1.0080           0
     10777 WT1      3394     TIP3     OH2      OT      -0.834000       15.9994           0
     10778 WT1      3394     TIP3     H1       HT       0.417000        1.0080           0
     10779 WT1      3394     TIP3     H2       HT       0.417000        1.0080           0
     10780 WT1      3395     TIP3     OH2      OT      -0.834000       15.9994           0
     10781 WT1      3395     TIP3     H1       HT       0.417000        1.0080           0
     10782 WT1      3395     TIP3     H2       HT       0.417000        1.0080           0
     10783 WT1      3396     TIP3     OH2      OT      -0.834000       15.9994           0
     10784 WT1      3396     TIP3     H1       HT       0.417000        1.0080           0
     10785 WT1      3396     TIP3     H2       HT       0.417000        1.0080           0
     10786 WT1      3397     TIP3     OH2      OT      -0.834000       15.9994           0
     10787 WT1      3397     TIP3     H1       HT       0.417000        1.0080           0
     10788 WT1      3397     TIP3     H2       HT       0.417000        1.0080           0
     10789 WT1      3398     TIP3     OH2      OT      -0.834000       15.9994           0
     10790 WT1      3398     TIP3     H1       HT       0.417000        1.0080           0
     10791 WT1      3398     TIP3     H2       HT       0.417000        1.0080           0
     10792 WT1      3399     TIP3     OH2      OT      -0.834000       15.9994           0
     10793 WT1      3399     TIP3     H1       HT       0.417000        1.0080           0
     10794 WT1      3399     TIP3     H2       HT       0.417000        1.0080           0
     10795 WT1      3400     TIP3     OH2      OT      -0.834000       15.9994           0
     10796 WT1      3400     TIP3     H1       HT       0.417000        1.0080           0
     10797 WT1      3400     TIP3     H2       HT       0.417000        1.0080           0
     10798 WT1      3401     TIP3     OH2      OT      -0.834000       15.9994           0
     10799 WT1      3401     TIP3     H1       HT       0.417000        1.0080           0
     10800 WT1      3401     TIP3     H2       HT       0.417000        1.0080           0
     10801 WT1      3402     TIP3     OH2      OT      -0.834000       15.9994           0
     10802 WT1      3402     TIP3     H1       HT       0.417000        1.0080           0
     10803 WT1      3402     TIP3     H2       HT       0.417000        1.0080           0
     10804 WT1      3403     TIP3     OH2      OT      -0.834000       15.9994           0
     10805 WT1      3403     TIP3     H1       HT       0.417000        1.0080           0
     10806 WT1      3403     TIP3     H2       HT       0.417000        1.0080           0
     10807 WT1      3404     TIP3     OH2      OT      -0.834000       15.9994           0
     10808 WT1      3404     TIP3     H1       HT       0.417000        1.0080           0
     10809 WT1      3404     TIP3     H2       HT       0.417000        1.0080           0
     10810 WT1      3405     TIP3     OH2      OT      -0.834000       15.9994           0
     10811 WT1      3405     TIP3     H1       HT       0.417000        1.0080           0
     10812 WT1      3405     TIP3     H2       HT       0.417000        1.0080           0
     10813 WT1      3406     TIP3     OH2      OT      -0.834000       15.9994           0
     10814 WT1      3406     TIP3     H1       HT       0.417000        1.0080           0
     10815 WT1      3406     TIP3     H2       HT       0.417000        1.0080           0
     10816 WT1      3407     TIP3     OH2      OT      -0.834000       15.9994           0
     10817 WT1      3407     TIP3     H1       HT       0.417000        1.0080           0
     10818 WT1      3407     TIP3     H2       HT       0.417000        1.0080           0
     10819 WT1      3408     TIP3     OH2      OT      -0.834000       15.9994           0
     10820 WT1      3408     TIP3     H1       HT       0.417000        1.0080           0
     10821 WT1      3408     TIP3     H2       HT       0.417000        1.0080           0
     10822 WT1      3409     TIP3     OH2      OT      -0.834000       15.9994           0
     10823 WT1      3409     TIP3     H1       HT       0.417000        1.0080           0
     10824 WT1      3409     TIP3     H2       HT       0.417000        1.0080           0
     10825 WT1      3410     TIP3     OH2      OT      -0.834000       15.9994           0
     10826 WT1      3410     TIP3     H1       HT       0.417000        1.0080           0
     10827 WT1      3410     TIP3     H2       HT       0.417000        1.0080           0
     10828 WT1      3411     TIP3     OH2      OT      -0.834000       15.9994           0
     10829 WT1      3411     TIP3     H1       HT       0.417000        1.0080           0
     10830 WT1      3411     TIP3     H2       HT       0.417000        1.0080           0
     10831 WT1      3412     TIP3     OH2      OT      -0.834000       15.9994           0
     10832 WT1      3412     TIP3     H1       HT       0.417000        1.0080           0
     10833 WT1      3412     TIP3     H2       HT       0.417000        1.0080           0
     10834 WT1      3413     TIP3     OH2      OT      -0.834000       15.9994           0
     10835 WT1      3413     TIP3     H1       HT       0.417000        1.0080           0
     10836 WT1      3413     TIP3     H2       HT       0.417000        1.0080           0
     10837 WT1      3414     TIP3     OH2      OT      -0.834000       15.9994           0
     10838 WT1      3414     TIP3     H1       HT       0.417000        1.0080           0
     10839 WT1      3414     TIP3     H2       HT       0.417000        1.0080           0
     10840 WT1      3415     TIP3     OH2      OT      -0.834000       15.9994           0
     10841 WT1      3415     TIP3     H1       HT       0.417000        1.0080           0
     10842 WT1      3415     TIP3     H2       HT       0.417000        1.0080           0
     10843 WT1      3416     TIP3     OH2      OT      -0.834000       15.9994           0
     10844 WT1      3416     TIP3     H1       HT       0.417000        1.0080           0
     10845 WT1      3416     TIP3     H2       HT       0.417000        1.0080           0
     10846 WT1      3417     TIP3     OH2      OT      -0.834000       15.9994           0
     10847 WT1      3417     TIP3     H1       HT       0.417000        1.0080           0
     10848 WT1      3417     TIP3     H2       HT       0.417000        1.0080           0
     10849 WT1      3418     TIP3     OH2      OT      -0.834000       15.9994           0
     10850 WT1      3418     TIP3     H1       HT       0.417000        1.0080           0
     10851 WT1      3418     TIP3     H2       HT       0.417000        1.0080           0
     10852 WT1      3419     TIP3     OH2      OT      -0.834000       15.9994           0
     10853 WT1      3419     TIP3     H1       HT       0.417000        1.0080           0
     10854 WT1      3419     TIP3     H2       HT       0.417000        1.0080           0
     10855 WT1      3420     TIP3     OH2      OT      -0.834000       15.9994           0
     10856 WT1      3420     TIP3     H1       HT       0.417000        1.0080           0
     10857 WT1      3420     TIP3     H2       HT       0.417000        1.0080           0
     10858 WT1      3421     TIP3     OH2      OT      -0.834000       15.9994           0
     10859 WT1      3421     TIP3     H1       HT       0.417000        1.0080           0
     10860 WT1      3421     TIP3     H2       HT       0.417000        1.0080           0
     10861 WT1      3422     TIP3     OH2      OT      -0.834000       15.9994           0
     10862 WT1      3422     TIP3     H1       HT       0.417000        1.0080           0
     10863 WT1      3422     TIP3     H2       HT       0.417000        1.0080           0
     10864 WT1      3423     TIP3     OH2      OT      -0.834000       15.9994           0
     10865 WT1      3423     TIP3     H1       HT       0.417000        1.0080           0
     10866 WT1      3423     TIP3     H2       HT       0.417000        1.0080           0
     10867 WT1      3424     TIP3     OH2      OT      -0.834000       15.9994           0
     10868 WT1      3424     TIP3     H1       HT       0.417000        1.0080           0
     10869 WT1      3424     TIP3     H2       HT       0.417000        1.0080           0
     10870 WT1      3425     TIP3     OH2      OT      -0.834000       15.9994           0
     10871 WT1      3425     TIP3     H1       HT       0.417000        1.0080           0
     10872 WT1      3425     TIP3     H2       HT       0.417000        1.0080           0
     10873 WT1      3426     TIP3     OH2      OT      -0.834000       15.9994           0
     10874 WT1      3426     TIP3     H1       HT       0.417000        1.0080           0
     10875 WT1      3426     TIP3     H2       HT       0.417000        1.0080           0
     10876 WT1      3427     TIP3     OH2      OT      -0.834000       15.9994           0
     10877 WT1      3427     TIP3     H1       HT       0.417000        1.0080           0
     10878 WT1      3427     TIP3     H2       HT       0.417000        1.0080           0
     10879 WT1      3428     TIP3     OH2      OT      -0.834000       15.9994           0
     10880 WT1      3428     TIP3     H1       HT       0.417000        1.0080           0
     10881 WT1      3428     TIP3     H2       HT       0.417000        1.0080           0
     10882 WT1      3429     TIP3     OH2      OT      -0.834000       15.9994           0
     10883 WT1      3429     TIP3     H1       HT       0.417000        1.0080           0
     10884 WT1      3429     TIP3     H2       HT       0.417000        1.0080           0
     10885 WT1      3430     TIP3     OH2      OT      -0.834000       15.9994           0
     10886 WT1      3430     TIP3     H1       HT       0.417000        1.0080           0
     10887 WT1      3430     TIP3     H2       HT       0.417000        1.0080           0
     10888 WT1      3431     TIP3     OH2      OT      -0.834000       15.9994           0
     10889 WT1      3431     TIP3     H1       HT       0.417000        1.0080           0
     10890 WT1      3431     TIP3     H2       HT       0.417000        1.0080           0
     10891 WT1      3432     TIP3     OH2      OT      -0.834000       15.9994           0
     10892 WT1      3432     TIP3     H1       HT       0.417000        1.0080           0
     10893 WT1      3432     TIP3     H2       HT       0.417000        1.0080           0
     10894 WT1      3433     TIP3     OH2      OT      -0.834000       15.9994           0
     10895 WT1      3433     TIP3     H1       HT       0.417000        1.0080           0
     10896 WT1      3433     TIP3     H2       HT       0.417000        1.0080           0
     10897 WT1      3434     TIP3     OH2      OT      -0.834000       15.9994           0
     10898 WT1      3434     TIP3     H1       HT       0.417000        1.0080           0
     10899 WT1      3434     TIP3     H2       HT       0.417000        1.0080           0
     10900 WT1      3435     TIP3     OH2      OT      -0.834000       15.9994           0
     10901 WT1      3435     TIP3     H1       HT       0.417000        1.0080           0
     10902 WT1      3435     TIP3     H2       HT       0.417000        1.0080           0
     10903 WT1      3436     TIP3     OH2      OT      -0.834000       15.9994           0
     10904 WT1      3436     TIP3     H1       HT       0.417000        1.0080           0
     10905 WT1      3436     TIP3     H2       HT       0.417000        1.0080           0
     10906 WT1      3437     TIP3     OH2      OT      -0.834000       15.9994           0
     10907 WT1      3437     TIP3     H1       HT       0.417000        1.0080           0
     10908 WT1      3437     TIP3     H2       HT       0.417000        1.0080           0
     10909 WT1      3438     TIP3     OH2      OT      -0.834000       15.9994           0
     10910 WT1      3438     TIP3     H1       HT       0.417000        1.0080           0
     10911 WT1      3438     TIP3     H2       HT       0.417000        1.0080           0
     10912 WT1      3439     TIP3     OH2      OT      -0.834000       15.9994           0
     10913 WT1      3439     TIP3     H1       HT       0.417000        1.0080           0
     10914 WT1      3439     TIP3     H2       HT       0.417000        1.0080           0
     10915 WT1      3440     TIP3     OH2      OT      -0.834000       15.9994           0
     10916 WT1      3440     TIP3     H1       HT       0.417000        1.0080           0
     10917 WT1      3440     TIP3     H2       HT       0.417000        1.0080           0
     10918 WT1      3441     TIP3     OH2      OT      -0.834000       15.9994           0
     10919 WT1      3441     TIP3     H1       HT       0.417000        1.0080           0
     10920 WT1      3441     TIP3     H2       HT       0.417000        1.0080           0
     10921 WT1      3442     TIP3     OH2      OT      -0.834000       15.9994           0
     10922 WT1      3442     TIP3     H1       HT       0.417000        1.0080           0
     10923 WT1      3442     TIP3     H2       HT       0.417000        1.0080           0
     10924 WT1      3444     TIP3     OH2      OT      -0.834000       15.9994           0
     10925 WT1      3444     TIP3     H1       HT       0.417000        1.0080           0
     10926 WT1      3444     TIP3     H2       HT       0.417000        1.0080           0
     10927 WT1      3445     TIP3     OH2      OT      -0.834000       15.9994           0
     10928 WT1      3445     TIP3     H1       HT       0.417000        1.0080           0
     10929 WT1      3445     TIP3     H2       HT       0.417000        1.0080           0
     10930 WT1      3446     TIP3     OH2      OT      -0.834000       15.9994           0
     10931 WT1      3446     TIP3     H1       HT       0.417000        1.0080           0
     10932 WT1      3446     TIP3     H2       HT       0.417000        1.0080           0
     10933 WT1      3447     TIP3     OH2      OT      -0.834000       15.9994           0
     10934 WT1      3447     TIP3     H1       HT       0.417000        1.0080           0
     10935 WT1      3447     TIP3     H2       HT       0.417000        1.0080           0
     10936 WT1      3448     TIP3     OH2      OT      -0.834000       15.9994           0
     10937 WT1      3448     TIP3     H1       HT       0.417000        1.0080           0
     10938 WT1      3448     TIP3     H2       HT       0.417000        1.0080           0
     10939 WT1      3449     TIP3     OH2      OT      -0.834000       15.9994           0
     10940 WT1      3449     TIP3     H1       HT       0.417000        1.0080           0
     10941 WT1      3449     TIP3     H2       HT       0.417000        1.0080           0
     10942 WT1      3450     TIP3     OH2      OT      -0.834000       15.9994           0
     10943 WT1      3450     TIP3     H1       HT       0.417000        1.0080           0
     10944 WT1      3450     TIP3     H2       HT       0.417000        1.0080           0
     10945 WT1      3451     TIP3     OH2      OT      -0.834000       15.9994           0
     10946 WT1      3451     TIP3     H1       HT       0.417000        1.0080           0
     10947 WT1      3451     TIP3     H2       HT       0.417000        1.0080           0
     10948 WT1      3452     TIP3     OH2      OT      -0.834000       15.9994           0
     10949 WT1      3452     TIP3     H1       HT       0.417000        1.0080           0
     10950 WT1      3452     TIP3     H2       HT       0.417000        1.0080           0
     10951 WT1      3453     TIP3     OH2      OT      -0.834000       15.9994           0
     10952 WT1      3453     TIP3     H1       HT       0.417000        1.0080           0
     10953 WT1      3453     TIP3     H2       HT       0.417000        1.0080           0
     10954 WT1      3454     TIP3     OH2      OT      -0.834000       15.9994           0
     10955 WT1      3454     TIP3     H1       HT       0.417000        1.0080           0
     10956 WT1      3454     TIP3     H2       HT       0.417000        1.0080           0
     10957 WT1      3455     TIP3     OH2      OT      -0.834000       15.9994           0
     10958 WT1      3455     TIP3     H1       HT       0.417000        1.0080           0
     10959 WT1      3455     TIP3     H2       HT       0.417000        1.0080           0
     10960 WT1      3456     TIP3     OH2      OT      -0.834000       15.9994           0
     10961 WT1      3456     TIP3     H1       HT       0.417000        1.0080           0
     10962 WT1      3456     TIP3     H2       HT       0.417000        1.0080           0
     10963 WT1      3457     TIP3     OH2      OT      -0.834000       15.9994           0
     10964 WT1      3457     TIP3     H1       HT       0.417000        1.0080           0
     10965 WT1      3457     TIP3     H2       HT       0.417000        1.0080           0
     10966 WT1      3458     TIP3     OH2      OT      -0.834000       15.9994           0
     10967 WT1      3458     TIP3     H1       HT       0.417000        1.0080           0
     10968 WT1      3458     TIP3     H2       HT       0.417000        1.0080           0
     10969 WT1      3459     TIP3     OH2      OT      -0.834000       15.9994           0
     10970 WT1      3459     TIP3     H1       HT       0.417000        1.0080           0
     10971 WT1      3459     TIP3     H2       HT       0.417000        1.0080           0
     10972 WT1      3460     TIP3     OH2      OT      -0.834000       15.9994           0
     10973 WT1      3460     TIP3     H1       HT       0.417000        1.0080           0
     10974 WT1      3460     TIP3     H2       HT       0.417000        1.0080           0
     10975 WT1      3461     TIP3     OH2      OT      -0.834000       15.9994           0
     10976 WT1      3461     TIP3     H1       HT       0.417000        1.0080           0
     10977 WT1      3461     TIP3     H2       HT       0.417000        1.0080           0
     10978 WT1      3462     TIP3     OH2      OT      -0.834000       15.9994           0
     10979 WT1      3462     TIP3     H1       HT       0.417000        1.0080           0
     10980 WT1      3462     TIP3     H2       HT       0.417000        1.0080           0
     10981 WT1      3463     TIP3     OH2      OT      -0.834000       15.9994           0
     10982 WT1      3463     TIP3     H1       HT       0.417000        1.0080           0
     10983 WT1      3463     TIP3     H2       HT       0.417000        1.0080           0
     10984 WT1      3464     TIP3     OH2      OT      -0.834000       15.9994           0
     10985 WT1      3464     TIP3     H1       HT       0.417000        1.0080           0
     10986 WT1      3464     TIP3     H2       HT       0.417000        1.0080           0
     10987 WT1      3465     TIP3     OH2      OT      -0.834000       15.9994           0
     10988 WT1      3465     TIP3     H1       HT       0.417000        1.0080           0
     10989 WT1      3465     TIP3     H2       HT       0.417000        1.0080           0
     10990 WT1      3466     TIP3     OH2      OT      -0.834000       15.9994           0
     10991 WT1      3466     TIP3     H1       HT       0.417000        1.0080           0
     10992 WT1      3466     TIP3     H2       HT       0.417000        1.0080           0
     10993 WT1      3467     TIP3     OH2      OT      -0.834000       15.9994           0
     10994 WT1      3467     TIP3     H1       HT       0.417000        1.0080           0
     10995 WT1      3467     TIP3     H2       HT       0.417000        1.0080           0
     10996 WT1      3468     TIP3     OH2      OT      -0.834000       15.9994           0
     10997 WT1      3468     TIP3     H1       HT       0.417000        1.0080           0
     10998 WT1      3468     TIP3     H2       HT       0.417000        1.0080           0
     10999 WT1      3469     TIP3     OH2      OT      -0.834000       15.9994           0
     11000 WT1      3469     TIP3     H1       HT       0.417000        1.0080           0
     11001 WT1      3469     TIP3     H2       HT       0.417000        1.0080           0
     11002 WT1      3470     TIP3     OH2      OT      -0.834000       15.9994           0
     11003 WT1      3470     TIP3     H1       HT       0.417000        1.0080           0
     11004 WT1      3470     TIP3     H2       HT       0.417000        1.0080           0
     11005 WT1      3471     TIP3     OH2      OT      -0.834000       15.9994           0
     11006 WT1      3471     TIP3     H1       HT       0.417000        1.0080           0
     11007 WT1      3471     TIP3     H2       HT       0.417000        1.0080           0
     11008 WT1      3472     TIP3     OH2      OT      -0.834000       15.9994           0
     11009 WT1      3472     TIP3     H1       HT       0.417000        1.0080           0
     11010 WT1      3472     TIP3     H2       HT       0.417000        1.0080           0
     11011 WT1      3473     TIP3     OH2      OT      -0.834000       15.9994           0
     11012 WT1      3473     TIP3     H1       HT       0.417000        1.0080           0
     11013 WT1      3473     TIP3     H2       HT       0.417000        1.0080           0
     11014 WT1      3474     TIP3     OH2      OT      -0.834000       15.9994           0
     11015 WT1      3474     TIP3     H1       HT       0.417000        1.0080           0
     11016 WT1      3474     TIP3     H2       HT       0.417000        1.0080           0
     11017 WT1      3475     TIP3     OH2      OT      -0.834000       15.9994           0
     11018 WT1      3475     TIP3     H1       HT       0.417000        1.0080           0
     11019 WT1      3475     TIP3     H2       HT       0.417000        1.0080           0
     11020 WT1      3476     TIP3     OH2      OT      -0.834000       15.9994           0
     11021 WT1      3476     TIP3     H1       HT       0.417000        1.0080           0
     11022 WT1      3476     TIP3     H2       HT       0.417000        1.0080           0
     11023 WT1      3477     TIP3     OH2      OT      -0.834000       15.9994           0
     11024 WT1      3477     TIP3     H1       HT       0.417000        1.0080           0
     11025 WT1      3477     TIP3     H2       HT       0.417000        1.0080           0
     11026 WT1      3478     TIP3     OH2      OT      -0.834000       15.9994           0
     11027 WT1      3478     TIP3     H1       HT       0.417000        1.0080           0
     11028 WT1      3478     TIP3     H2       HT       0.417000        1.0080           0
     11029 WT1      3479     TIP3     OH2      OT      -0.834000       15.9994           0
     11030 WT1      3479     TIP3     H1       HT       0.417000        1.0080           0
     11031 WT1      3479     TIP3     H2       HT       0.417000        1.0080           0
     11032 WT1      3481     TIP3     OH2      OT      -0.834000       15.9994           0
     11033 WT1      3481     TIP3     H1       HT       0.417000        1.0080           0
     11034 WT1      3481     TIP3     H2       HT       0.417000        1.0080           0
     11035 WT1      3482     TIP3     OH2      OT      -0.834000       15.9994           0
     11036 WT1      3482     TIP3     H1       HT       0.417000        1.0080           0
     11037 WT1      3482     TIP3     H2       HT       0.417000        1.0080           0
     11038 WT1      3483     TIP3     OH2      OT      -0.834000       15.9994           0
     11039 WT1      3483     TIP3     H1       HT       0.417000        1.0080           0
     11040 WT1      3483     TIP3     H2       HT       0.417000        1.0080           0
     11041 WT1      3484     TIP3     OH2      OT      -0.834000       15.9994           0
     11042 WT1      3484     TIP3     H1       HT       0.417000        1.0080           0
     11043 WT1      3484     TIP3     H2       HT       0.417000        1.0080           0
     11044 WT1      3485     TIP3     OH2      OT      -0.834000       15.9994           0
     11045 WT1      3485     TIP3     H1       HT       0.417000        1.0080           0
     11046 WT1      3485     TIP3     H2       HT       0.417000        1.0080           0
     11047 WT1      3486     TIP3     OH2      OT      -0.834000       15.9994           0
     11048 WT1      3486     TIP3     H1       HT       0.417000        1.0080           0
     11049 WT1      3486     TIP3     H2       HT       0.417000        1.0080           0
     11050 WT1      3487     TIP3     OH2      OT      -0.834000       15.9994           0
     11051 WT1      3487     TIP3     H1       HT       0.417000        1.0080           0
     11052 WT1      3487     TIP3     H2       HT       0.417000        1.0080           0
     11053 WT1      3488     TIP3     OH2      OT      -0.834000       15.9994           0
     11054 WT1      3488     TIP3     H1       HT       0.417000        1.0080           0
     11055 WT1      3488     TIP3     H2       HT       0.417000        1.0080           0
     11056 WT1      3489     TIP3     OH2      OT      -0.834000       15.9994           0
     11057 WT1      3489     TIP3     H1       HT       0.417000        1.0080           0
     11058 WT1      3489     TIP3     H2       HT       0.417000        1.0080           0
     11059 WT1      3490     TIP3     OH2      OT      -0.834000       15.9994           0
     11060 WT1      3490     TIP3     H1       HT       0.417000        1.0080           0
     11061 WT1      3490     TIP3     H2       HT       0.417000        1.0080           0
     11062 WT1      3491     TIP3     OH2      OT      -0.834000       15.9994           0
     11063 WT1      3491     TIP3     H1       HT       0.417000        1.0080           0
     11064 WT1      3491     TIP3     H2       HT       0.417000        1.0080           0
     11065 WT1      3492     TIP3     OH2      OT      -0.834000       15.9994           0
     11066 WT1      3492     TIP3     H1       HT       0.417000        1.0080           0
     11067 WT1      3492     TIP3     H2       HT       0.417000        1.0080           0
     11068 WT1      3493     TIP3     OH2      OT      -0.834000       15.9994           0
     11069 WT1      3493     TIP3     H1       HT       0.417000        1.0080           0
     11070 WT1      3493     TIP3     H2       HT       0.417000        1.0080           0
     11071 WT1      3494     TIP3     OH2      OT      -0.834000       15.9994           0
     11072 WT1      3494     TIP3     H1       HT       0.417000        1.0080           0
     11073 WT1      3494     TIP3     H2       HT       0.417000        1.0080           0
     11074 WT1      3495     TIP3     OH2      OT      -0.834000       15.9994           0
     11075 WT1      3495     TIP3     H1       HT       0.417000        1.0080           0
     11076 WT1      3495     TIP3     H2       HT       0.417000        1.0080           0
     11077 WT1      3496     TIP3     OH2      OT      -0.834000       15.9994           0
     11078 WT1      3496     TIP3     H1       HT       0.417000        1.0080           0
     11079 WT1      3496     TIP3     H2       HT       0.417000        1.0080           0
     11080 WT1      3497     TIP3     OH2      OT      -0.834000       15.9994           0
     11081 WT1      3497     TIP3     H1       HT       0.417000        1.0080           0
     11082 WT1      3497     TIP3     H2       HT       0.417000        1.0080           0
     11083 WT1      3498     TIP3     OH2      OT      -0.834000       15.9994           0
     11084 WT1      3498     TIP3     H1       HT       0.417000        1.0080           0
     11085 WT1      3498     TIP3     H2       HT       0.417000        1.0080           0
     11086 WT1      3499     TIP3     OH2      OT      -0.834000       15.9994           0
     11087 WT1      3499     TIP3     H1       HT       0.417000        1.0080           0
     11088 WT1      3499     TIP3     H2       HT       0.417000        1.0080           0
     11089 WT1      3500     TIP3     OH2      OT      -0.834000       15.9994           0
     11090 WT1      3500     TIP3     H1       HT       0.417000        1.0080           0
     11091 WT1      3500     TIP3     H2       HT       0.417000        1.0080           0
     11092 WT1      3501     TIP3     OH2      OT      -0.834000       15.9994           0
     11093 WT1      3501     TIP3     H1       HT       0.417000        1.0080           0
     11094 WT1      3501     TIP3     H2       HT       0.417000        1.0080           0
     11095 WT1      3502     TIP3     OH2      OT      -0.834000       15.9994           0
     11096 WT1      3502     TIP3     H1       HT       0.417000        1.0080           0
     11097 WT1      3502     TIP3     H2       HT       0.417000        1.0080           0
     11098 WT1      3503     TIP3     OH2      OT      -0.834000       15.9994           0
     11099 WT1      3503     TIP3     H1       HT       0.417000        1.0080           0
     11100 WT1      3503     TIP3     H2       HT       0.417000        1.0080           0
     11101 WT1      3504     TIP3     OH2      OT      -0.834000       15.9994           0
     11102 WT1      3504     TIP3     H1       HT       0.417000        1.0080           0
     11103 WT1      3504     TIP3     H2       HT       0.417000        1.0080           0
     11104 WT1      3505     TIP3     OH2      OT      -0.834000       15.9994           0
     11105 WT1      3505     TIP3     H1       HT       0.417000        1.0080           0
     11106 WT1      3505     TIP3     H2       HT       0.417000        1.0080           0
     11107 WT1      3506     TIP3     OH2      OT      -0.834000       15.9994           0
     11108 WT1      3506     TIP3     H1       HT       0.417000        1.0080           0
     11109 WT1      3506     TIP3     H2       HT       0.417000        1.0080           0
     11110 WT1      3507     TIP3     OH2      OT      -0.834000       15.9994           0
     11111 WT1      3507     TIP3     H1       HT       0.417000        1.0080           0
     11112 WT1      3507     TIP3     H2       HT       0.417000        1.0080           0
     11113 WT1      3508     TIP3     OH2      OT      -0.834000       15.9994           0
     11114 WT1      3508     TIP3     H1       HT       0.417000        1.0080           0
     11115 WT1      3508     TIP3     H2       HT       0.417000        1.0080           0
     11116 WT1      3509     TIP3     OH2      OT      -0.834000       15.9994           0
     11117 WT1      3509     TIP3     H1       HT       0.417000        1.0080           0
     11118 WT1      3509     TIP3     H2       HT       0.417000        1.0080           0
     11119 WT1      3510     TIP3     OH2      OT      -0.834000       15.9994           0
     11120 WT1      3510     TIP3     H1       HT       0.417000        1.0080           0
     11121 WT1      3510     TIP3     H2       HT       0.417000        1.0080           0
     11122 WT1      3511     TIP3     OH2      OT      -0.834000       15.9994           0
     11123 WT1      3511     TIP3     H1       HT       0.417000        1.0080           0
     11124 WT1      3511     TIP3     H2       HT       0.417000        1.0080           0
     11125 WT1      3512     TIP3     OH2      OT      -0.834000       15.9994           0
     11126 WT1      3512     TIP3     H1       HT       0.417000        1.0080           0
     11127 WT1      3512     TIP3     H2       HT       0.417000        1.0080           0
     11128 WT1      3513     TIP3     OH2      OT      -0.834000       15.9994           0
     11129 WT1      3513     TIP3     H1       HT       0.417000        1.0080           0
     11130 WT1      3513     TIP3     H2       HT       0.417000        1.0080           0
     11131 WT1      3514     TIP3     OH2      OT      -0.834000       15.9994           0
     11132 WT1      3514     TIP3     H1       HT       0.417000        1.0080           0
     11133 WT1      3514     TIP3     H2       HT       0.417000        1.0080           0
     11134 WT1      3515     TIP3     OH2      OT      -0.834000       15.9994           0
     11135 WT1      3515     TIP3     H1       HT       0.417000        1.0080           0
     11136 WT1      3515     TIP3     H2       HT       0.417000        1.0080           0
     11137 WT1      3516     TIP3     OH2      OT      -0.834000       15.9994           0
     11138 WT1      3516     TIP3     H1       HT       0.417000        1.0080           0
     11139 WT1      3516     TIP3     H2       HT       0.417000        1.0080           0
     11140 WT1      3517     TIP3     OH2      OT      -0.834000       15.9994           0
     11141 WT1      3517     TIP3     H1       HT       0.417000        1.0080           0
     11142 WT1      3517     TIP3     H2       HT       0.417000        1.0080           0
     11143 WT1      3518     TIP3     OH2      OT      -0.834000       15.9994           0
     11144 WT1      3518     TIP3     H1       HT       0.417000        1.0080           0
     11145 WT1      3518     TIP3     H2       HT       0.417000        1.0080           0
     11146 WT1      3519     TIP3     OH2      OT      -0.834000       15.9994           0
     11147 WT1      3519     TIP3     H1       HT       0.417000        1.0080           0
     11148 WT1      3519     TIP3     H2       HT       0.417000        1.0080           0
     11149 WT1      3520     TIP3     OH2      OT      -0.834000       15.9994           0
     11150 WT1      3520     TIP3     H1       HT       0.417000        1.0080           0
     11151 WT1      3520     TIP3     H2       HT       0.417000        1.0080           0
     11152 WT1      3521     TIP3     OH2      OT      -0.834000       15.9994           0
     11153 WT1      3521     TIP3     H1       HT       0.417000        1.0080           0
     11154 WT1      3521     TIP3     H2       HT       0.417000        1.0080           0
     11155 WT1      3522     TIP3     OH2      OT      -0.834000       15.9994           0
     11156 WT1      3522     TIP3     H1       HT       0.417000        1.0080           0
     11157 WT1      3522     TIP3     H2       HT       0.417000        1.0080           0
     11158 WT1      3523     TIP3     OH2      OT      -0.834000       15.9994           0
     11159 WT1      3523     TIP3     H1       HT       0.417000        1.0080           0
     11160 WT1      3523     TIP3     H2       HT       0.417000        1.0080           0
     11161 WT1      3524     TIP3     OH2      OT      -0.834000       15.9994           0
     11162 WT1      3524     TIP3     H1       HT       0.417000        1.0080           0
     11163 WT1      3524     TIP3     H2       HT       0.417000        1.0080           0
     11164 WT1      3525     TIP3     OH2      OT      -0.834000       15.9994           0
     11165 WT1      3525     TIP3     H1       HT       0.417000        1.0080           0
     11166 WT1      3525     TIP3     H2       HT       0.417000        1.0080           0
     11167 WT1      3526     TIP3     OH2      OT      -0.834000       15.9994           0
     11168 WT1      3526     TIP3     H1       HT       0.417000        1.0080           0
     11169 WT1      3526     TIP3     H2       HT       0.417000        1.0080           0
     11170 WT1      3527     TIP3     OH2      OT      -0.834000       15.9994           0
     11171 WT1      3527     TIP3     H1       HT       0.417000        1.0080           0
     11172 WT1      3527     TIP3     H2       HT       0.417000        1.0080           0
     11173 WT1      3528     TIP3     OH2      OT      -0.834000       15.9994           0
     11174 WT1      3528     TIP3     H1       HT       0.417000        1.0080           0
     11175 WT1      3528     TIP3     H2       HT       0.417000        1.0080           0
     11176 WT1      3529     TIP3     OH2      OT      -0.834000       15.9994           0
     11177 WT1      3529     TIP3     H1       HT       0.417000        1.0080           0
     11178 WT1      3529     TIP3     H2       HT       0.417000        1.0080           0
     11179 WT1      3530     TIP3     OH2      OT      -0.834000       15.9994           0
     11180 WT1      3530     TIP3     H1       HT       0.417000        1.0080           0
     11181 WT1      3530     TIP3     H2       HT       0.417000        1.0080           0
     11182 WT1      3531     TIP3     OH2      OT      -0.834000       15.9994           0
     11183 WT1      3531     TIP3     H1       HT       0.417000        1.0080           0
     11184 WT1      3531     TIP3     H2       HT       0.417000        1.0080           0
     11185 WT1      3532     TIP3     OH2      OT      -0.834000       15.9994           0
     11186 WT1      3532     TIP3     H1       HT       0.417000        1.0080           0
     11187 WT1      3532     TIP3     H2       HT       0.417000        1.0080           0
     11188 WT1      3533     TIP3     OH2      OT      -0.834000       15.9994           0
     11189 WT1      3533     TIP3     H1       HT       0.417000        1.0080           0
     11190 WT1      3533     TIP3     H2       HT       0.417000        1.0080           0
     11191 WT1      3534     TIP3     OH2      OT      -0.834000       15.9994           0
     11192 WT1      3534     TIP3     H1       HT       0.417000        1.0080           0
     11193 WT1      3534     TIP3     H2       HT       0.417000        1.0080           0
     11194 WT1      3535     TIP3     OH2      OT      -0.834000       15.9994           0
     11195 WT1      3535     TIP3     H1       HT       0.417000        1.0080           0
     11196 WT1      3535     TIP3     H2       HT       0.417000        1.0080           0
     11197 WT1      3536     TIP3     OH2      OT      -0.834000       15.9994           0
     11198 WT1      3536     TIP3     H1       HT       0.417000        1.0080           0
     11199 WT1      3536     TIP3     H2       HT       0.417000        1.0080           0
     11200 WT1      3537     TIP3     OH2      OT      -0.834000       15.9994           0
     11201 WT1      3537     TIP3     H1       HT       0.417000        1.0080           0
     11202 WT1      3537     TIP3     H2       HT       0.417000        1.0080           0
     11203 WT1      3538     TIP3     OH2      OT      -0.834000       15.9994           0
     11204 WT1      3538     TIP3     H1       HT       0.417000        1.0080           0
     11205 WT1      3538     TIP3     H2       HT       0.417000        1.0080           0
     11206 WT1      3539     TIP3     OH2      OT      -0.834000       15.9994           0
     11207 WT1      3539     TIP3     H1       HT       0.417000        1.0080           0
     11208 WT1      3539     TIP3     H2       HT       0.417000        1.0080           0
     11209 WT1      3540     TIP3     OH2      OT      -0.834000       15.9994           0
     11210 WT1      3540     TIP3     H1       HT       0.417000        1.0080           0
     11211 WT1      3540     TIP3     H2       HT       0.417000        1.0080           0
     11212 WT1      3541     TIP3     OH2      OT      -0.834000       15.9994           0
     11213 WT1      3541     TIP3     H1       HT       0.417000        1.0080           0
     11214 WT1      3541     TIP3     H2       HT       0.417000        1.0080           0
     11215 WT1      3542     TIP3     OH2      OT      -0.834000       15.9994           0
     11216 WT1      3542     TIP3     H1       HT       0.417000        1.0080           0
     11217 WT1      3542     TIP3     H2       HT       0.417000        1.0080           0
     11218 WT1      3543     TIP3     OH2      OT      -0.834000       15.9994           0
     11219 WT1      3543     TIP3     H1       HT       0.417000        1.0080           0
     11220 WT1      3543     TIP3     H2       HT       0.417000        1.0080           0
     11221 WT1      3544     TIP3     OH2      OT      -0.834000       15.9994           0
     11222 WT1      3544     TIP3     H1       HT       0.417000        1.0080           0
     11223 WT1      3544     TIP3     H2       HT       0.417000        1.0080           0
     11224 WT1      3545     TIP3     OH2      OT      -0.834000       15.9994           0
     11225 WT1      3545     TIP3     H1       HT       0.417000        1.0080           0
     11226 WT1      3545     TIP3     H2       HT       0.417000        1.0080           0
     11227 WT1      3546     TIP3     OH2      OT      -0.834000       15.9994           0
     11228 WT1      3546     TIP3     H1       HT       0.417000        1.0080           0
     11229 WT1      3546     TIP3     H2       HT       0.417000        1.0080           0
     11230 WT1      3547     TIP3     OH2      OT      -0.834000       15.9994           0
     11231 WT1      3547     TIP3     H1       HT       0.417000        1.0080           0
     11232 WT1      3547     TIP3     H2       HT       0.417000        1.0080           0
     11233 WT1      3548     TIP3     OH2      OT      -0.834000       15.9994           0
     11234 WT1      3548     TIP3     H1       HT       0.417000        1.0080           0
     11235 WT1      3548     TIP3     H2       HT       0.417000        1.0080           0
     11236 WT1      3549     TIP3     OH2      OT      -0.834000       15.9994           0
     11237 WT1      3549     TIP3     H1       HT       0.417000        1.0080           0
     11238 WT1      3549     TIP3     H2       HT       0.417000        1.0080           0
     11239 WT1      3550     TIP3     OH2      OT      -0.834000       15.9994           0
     11240 WT1      3550     TIP3     H1       HT       0.417000        1.0080           0
     11241 WT1      3550     TIP3     H2       HT       0.417000        1.0080           0
     11242 WT1      3551     TIP3     OH2      OT      -0.834000       15.9994           0
     11243 WT1      3551     TIP3     H1       HT       0.417000        1.0080           0
     11244 WT1      3551     TIP3     H2       HT       0.417000        1.0080           0
     11245 WT1      3552     TIP3     OH2      OT      -0.834000       15.9994           0
     11246 WT1      3552     TIP3     H1       HT       0.417000        1.0080           0
     11247 WT1      3552     TIP3     H2       HT       0.417000        1.0080           0
     11248 WT1      3553     TIP3     OH2      OT      -0.834000       15.9994           0
     11249 WT1      3553     TIP3     H1       HT       0.417000        1.0080           0
     11250 WT1      3553     TIP3     H2       HT       0.417000        1.0080           0
     11251 WT1      3554     TIP3     OH2      OT      -0.834000       15.9994           0
     11252 WT1      3554     TIP3     H1       HT       0.417000        1.0080           0
     11253 WT1      3554     TIP3     H2       HT       0.417000        1.0080           0
     11254 WT1      3555     TIP3     OH2      OT      -0.834000       15.9994           0
     11255 WT1      3555     TIP3     H1       HT       0.417000        1.0080           0
     11256 WT1      3555     TIP3     H2       HT       0.417000        1.0080           0
     11257 WT1      3556     TIP3     OH2      OT      -0.834000       15.9994           0
     11258 WT1      3556     TIP3     H1       HT       0.417000        1.0080           0
     11259 WT1      3556     TIP3     H2       HT       0.417000        1.0080           0
     11260 WT1      3557     TIP3     OH2      OT      -0.834000       15.9994           0
     11261 WT1      3557     TIP3     H1       HT       0.417000        1.0080           0
     11262 WT1      3557     TIP3     H2       HT       0.417000        1.0080           0
     11263 WT1      3558     TIP3     OH2      OT      -0.834000       15.9994           0
     11264 WT1      3558     TIP3     H1       HT       0.417000        1.0080           0
     11265 WT1      3558     TIP3     H2       HT       0.417000        1.0080           0
     11266 WT1      3559     TIP3     OH2      OT      -0.834000       15.9994           0
     11267 WT1      3559     TIP3     H1       HT       0.417000        1.0080           0
     11268 WT1      3559     TIP3     H2       HT       0.417000        1.0080           0
     11269 WT1      3560     TIP3     OH2      OT      -0.834000       15.9994           0
     11270 WT1      3560     TIP3     H1       HT       0.417000        1.0080           0
     11271 WT1      3560     TIP3     H2       HT       0.417000        1.0080           0
     11272 WT1      3561     TIP3     OH2      OT      -0.834000       15.9994           0
     11273 WT1      3561     TIP3     H1       HT       0.417000        1.0080           0
     11274 WT1      3561     TIP3     H2       HT       0.417000        1.0080           0
     11275 WT1      3562     TIP3     OH2      OT      -0.834000       15.9994           0
     11276 WT1      3562     TIP3     H1       HT       0.417000        1.0080           0
     11277 WT1      3562     TIP3     H2       HT       0.417000        1.0080           0
     11278 WT1      3563     TIP3     OH2      OT      -0.834000       15.9994           0
     11279 WT1      3563     TIP3     H1       HT       0.417000        1.0080           0
     11280 WT1      3563     TIP3     H2       HT       0.417000        1.0080           0
     11281 WT1      3564     TIP3     OH2      OT      -0.834000       15.9994           0
     11282 WT1      3564     TIP3     H1       HT       0.417000        1.0080           0
     11283 WT1      3564     TIP3     H2       HT       0.417000        1.0080           0
     11284 WT1      3565     TIP3     OH2      OT      -0.834000       15.9994           0
     11285 WT1      3565     TIP3     H1       HT       0.417000        1.0080           0
     11286 WT1      3565     TIP3     H2       HT       0.417000        1.0080           0
     11287 WT1      3566     TIP3     OH2      OT      -0.834000       15.9994           0
     11288 WT1      3566     TIP3     H1       HT       0.417000        1.0080           0
     11289 WT1      3566     TIP3     H2       HT       0.417000        1.0080           0
     11290 WT1      3567     TIP3     OH2      OT      -0.834000       15.9994           0
     11291 WT1      3567     TIP3     H1       HT       0.417000        1.0080           0
     11292 WT1      3567     TIP3     H2       HT       0.417000        1.0080           0
     11293 WT1      3568     TIP3     OH2      OT      -0.834000       15.9994           0
     11294 WT1      3568     TIP3     H1       HT       0.417000        1.0080           0
     11295 WT1      3568     TIP3     H2       HT       0.417000        1.0080           0
     11296 WT1      3569     TIP3     OH2      OT      -0.834000       15.9994           0
     11297 WT1      3569     TIP3     H1       HT       0.417000        1.0080           0
     11298 WT1      3569     TIP3     H2       HT       0.417000        1.0080           0
     11299 WT1      3570     TIP3     OH2      OT      -0.834000       15.9994           0
     11300 WT1      3570     TIP3     H1       HT       0.417000        1.0080           0
     11301 WT1      3570     TIP3     H2       HT       0.417000        1.0080           0
     11302 WT1      3571     TIP3     OH2      OT      -0.834000       15.9994           0
     11303 WT1      3571     TIP3     H1       HT       0.417000        1.0080           0
     11304 WT1      3571     TIP3     H2       HT       0.417000        1.0080           0
     11305 WT1      3572     TIP3     OH2      OT      -0.834000       15.9994           0
     11306 WT1      3572     TIP3     H1       HT       0.417000        1.0080           0
     11307 WT1      3572     TIP3     H2       HT       0.417000        1.0080           0
     11308 WT1      3573     TIP3     OH2      OT      -0.834000       15.9994           0
     11309 WT1      3573     TIP3     H1       HT       0.417000        1.0080           0
     11310 WT1      3573     TIP3     H2       HT       0.417000        1.0080           0
     11311 WT1      3574     TIP3     OH2      OT      -0.834000       15.9994           0
     11312 WT1      3574     TIP3     H1       HT       0.417000        1.0080           0
     11313 WT1      3574     TIP3     H2       HT       0.417000        1.0080           0
     11314 WT1      3575     TIP3     OH2      OT      -0.834000       15.9994           0
     11315 WT1      3575     TIP3     H1       HT       0.417000        1.0080           0
     11316 WT1      3575     TIP3     H2       HT       0.417000        1.0080           0
     11317 WT1      3576     TIP3     OH2      OT      -0.834000       15.9994           0
     11318 WT1      3576     TIP3     H1       HT       0.417000        1.0080           0
     11319 WT1      3576     TIP3     H2       HT       0.417000        1.0080           0
     11320 WT1      3577     TIP3     OH2      OT      -0.834000       15.9994           0
     11321 WT1      3577     TIP3     H1       HT       0.417000        1.0080           0
     11322 WT1      3577     TIP3     H2       HT       0.417000        1.0080           0
     11323 WT1      3578     TIP3     OH2      OT      -0.834000       15.9994           0
     11324 WT1      3578     TIP3     H1       HT       0.417000        1.0080           0
     11325 WT1      3578     TIP3     H2       HT       0.417000        1.0080           0
     11326 WT1      3579     TIP3     OH2      OT      -0.834000       15.9994           0
     11327 WT1      3579     TIP3     H1       HT       0.417000        1.0080           0
     11328 WT1      3579     TIP3     H2       HT       0.417000        1.0080           0
     11329 WT1      3580     TIP3     OH2      OT      -0.834000       15.9994           0
     11330 WT1      3580     TIP3     H1       HT       0.417000        1.0080           0
     11331 WT1      3580     TIP3     H2       HT       0.417000        1.0080           0
     11332 WT1      3581     TIP3     OH2      OT      -0.834000       15.9994           0
     11333 WT1      3581     TIP3     H1       HT       0.417000        1.0080           0
     11334 WT1      3581     TIP3     H2       HT       0.417000        1.0080           0
     11335 WT1      3582     TIP3     OH2      OT      -0.834000       15.9994           0
     11336 WT1      3582     TIP3     H1       HT       0.417000        1.0080           0
     11337 WT1      3582     TIP3     H2       HT       0.417000        1.0080           0
     11338 WT1      3583     TIP3     OH2      OT      -0.834000       15.9994           0
     11339 WT1      3583     TIP3     H1       HT       0.417000        1.0080           0
     11340 WT1      3583     TIP3     H2       HT       0.417000        1.0080           0
     11341 WT1      3584     TIP3     OH2      OT      -0.834000       15.9994           0
     11342 WT1      3584     TIP3     H1       HT       0.417000        1.0080           0
     11343 WT1      3584     TIP3     H2       HT       0.417000        1.0080           0
     11344 WT1      3585     TIP3     OH2      OT      -0.834000       15.9994           0
     11345 WT1      3585     TIP3     H1       HT       0.417000        1.0080           0
     11346 WT1      3585     TIP3     H2       HT       0.417000        1.0080           0
     11347 WT1      3586     TIP3     OH2      OT      -0.834000       15.9994           0
     11348 WT1      3586     TIP3     H1       HT       0.417000        1.0080           0
     11349 WT1      3586     TIP3     H2       HT       0.417000        1.0080           0
     11350 WT1      3587     TIP3     OH2      OT      -0.834000       15.9994           0
     11351 WT1      3587     TIP3     H1       HT       0.417000        1.0080           0
     11352 WT1      3587     TIP3     H2       HT       0.417000        1.0080           0
     11353 WT1      3588     TIP3     OH2      OT      -0.834000       15.9994           0
     11354 WT1      3588     TIP3     H1       HT       0.417000        1.0080           0
     11355 WT1      3588     TIP3     H2       HT       0.417000        1.0080           0
     11356 WT1      3589     TIP3     OH2      OT      -0.834000       15.9994           0
     11357 WT1      3589     TIP3     H1       HT       0.417000        1.0080           0
     11358 WT1      3589     TIP3     H2       HT       0.417000        1.0080           0
     11359 WT1      3590     TIP3     OH2      OT      -0.834000       15.9994           0
     11360 WT1      3590     TIP3     H1       HT       0.417000        1.0080           0
     11361 WT1      3590     TIP3     H2       HT       0.417000        1.0080           0
     11362 WT1      3591     TIP3     OH2      OT      -0.834000       15.9994           0
     11363 WT1      3591     TIP3     H1       HT       0.417000        1.0080           0
     11364 WT1      3591     TIP3     H2       HT       0.417000        1.0080           0
     11365 WT1      3592     TIP3     OH2      OT      -0.834000       15.9994           0
     11366 WT1      3592     TIP3     H1       HT       0.417000        1.0080           0
     11367 WT1      3592     TIP3     H2       HT       0.417000        1.0080           0
     11368 WT1      3593     TIP3     OH2      OT      -0.834000       15.9994           0
     11369 WT1      3593     TIP3     H1       HT       0.417000        1.0080           0
     11370 WT1      3593     TIP3     H2       HT       0.417000        1.0080           0
     11371 WT1      3594     TIP3     OH2      OT      -0.834000       15.9994           0
     11372 WT1      3594     TIP3     H1       HT       0.417000        1.0080           0
     11373 WT1      3594     TIP3     H2       HT       0.417000        1.0080           0
     11374 WT1      3595     TIP3     OH2      OT      -0.834000       15.9994           0
     11375 WT1      3595     TIP3     H1       HT       0.417000        1.0080           0
     11376 WT1      3595     TIP3     H2       HT       0.417000        1.0080           0
     11377 WT1      3596     TIP3     OH2      OT      -0.834000       15.9994           0
     11378 WT1      3596     TIP3     H1       HT       0.417000        1.0080           0
     11379 WT1      3596     TIP3     H2       HT       0.417000        1.0080           0
     11380 WT1      3597     TIP3     OH2      OT      -0.834000       15.9994           0
     11381 WT1      3597     TIP3     H1       HT       0.417000        1.0080           0
     11382 WT1      3597     TIP3     H2       HT       0.417000        1.0080           0
     11383 WT1      3598     TIP3     OH2      OT      -0.834000       15.9994           0
     11384 WT1      3598     TIP3     H1       HT       0.417000        1.0080           0
     11385 WT1      3598     TIP3     H2       HT       0.417000        1.0080           0
     11386 WT1      3599     TIP3     OH2      OT      -0.834000       15.9994           0
     11387 WT1      3599     TIP3     H1       HT       0.417000        1.0080           0
     11388 WT1      3599     TIP3     H2       HT       0.417000        1.0080           0
     11389 WT1      3600     TIP3     OH2      OT      -0.834000       15.9994           0
     11390 WT1      3600     TIP3     H1       HT       0.417000        1.0080           0
     11391 WT1      3600     TIP3     H2       HT       0.417000        1.0080           0
     11392 WT1      3601     TIP3     OH2      OT      -0.834000       15.9994           0
     11393 WT1      3601     TIP3     H1       HT       0.417000        1.0080           0
     11394 WT1      3601     TIP3     H2       HT       0.417000        1.0080           0
     11395 WT1      3602     TIP3     OH2      OT      -0.834000       15.9994           0
     11396 WT1      3602     TIP3     H1       HT       0.417000        1.0080           0
     11397 WT1      3602     TIP3     H2       HT       0.417000        1.0080           0
     11398 WT1      3603     TIP3     OH2      OT      -0.834000       15.9994           0
     11399 WT1      3603     TIP3     H1       HT       0.417000        1.0080           0
     11400 WT1      3603     TIP3     H2       HT       0.417000        1.0080           0
     11401 WT1      3604     TIP3     OH2      OT      -0.834000       15.9994           0
     11402 WT1      3604     TIP3     H1       HT       0.417000        1.0080           0
     11403 WT1      3604     TIP3     H2       HT       0.417000        1.0080           0
     11404 WT1      3605     TIP3     OH2      OT      -0.834000       15.9994           0
     11405 WT1      3605     TIP3     H1       HT       0.417000        1.0080           0
     11406 WT1      3605     TIP3     H2       HT       0.417000        1.0080           0
     11407 WT1      3606     TIP3     OH2      OT      -0.834000       15.9994           0
     11408 WT1      3606     TIP3     H1       HT       0.417000        1.0080           0
     11409 WT1      3606     TIP3     H2       HT       0.417000        1.0080           0
     11410 WT1      3607     TIP3     OH2      OT      -0.834000       15.9994           0
     11411 WT1      3607     TIP3     H1       HT       0.417000        1.0080           0
     11412 WT1      3607     TIP3     H2       HT       0.417000        1.0080           0
     11413 WT1      3608     TIP3     OH2      OT      -0.834000       15.9994           0
     11414 WT1      3608     TIP3     H1       HT       0.417000        1.0080           0
     11415 WT1      3608     TIP3     H2       HT       0.417000        1.0080           0
     11416 WT1      3609     TIP3     OH2      OT      -0.834000       15.9994           0
     11417 WT1      3609     TIP3     H1       HT       0.417000        1.0080           0
     11418 WT1      3609     TIP3     H2       HT       0.417000        1.0080           0
     11419 WT1      3610     TIP3     OH2      OT      -0.834000       15.9994           0
     11420 WT1      3610     TIP3     H1       HT       0.417000        1.0080           0
     11421 WT1      3610     TIP3     H2       HT       0.417000        1.0080           0
     11422 WT1      3611     TIP3     OH2      OT      -0.834000       15.9994           0
     11423 WT1      3611     TIP3     H1       HT       0.417000        1.0080           0
     11424 WT1      3611     TIP3     H2       HT       0.417000        1.0080           0
     11425 WT1      3612     TIP3     OH2      OT      -0.834000       15.9994           0
     11426 WT1      3612     TIP3     H1       HT       0.417000        1.0080           0
     11427 WT1      3612     TIP3     H2       HT       0.417000        1.0080           0
     11428 WT1      3613     TIP3     OH2      OT      -0.834000       15.9994           0
     11429 WT1      3613     TIP3     H1       HT       0.417000        1.0080           0
     11430 WT1      3613     TIP3     H2       HT       0.417000        1.0080           0
     11431 WT1      3614     TIP3     OH2      OT      -0.834000       15.9994           0
     11432 WT1      3614     TIP3     H1       HT       0.417000        1.0080           0
     11433 WT1      3614     TIP3     H2       HT       0.417000        1.0080           0
     11434 WT1      3615     TIP3     OH2      OT      -0.834000       15.9994           0
     11435 WT1      3615     TIP3     H1       HT       0.417000        1.0080           0
     11436 WT1      3615     TIP3     H2       HT       0.417000        1.0080           0
     11437 WT1      3616     TIP3     OH2      OT      -0.834000       15.9994           0
     11438 WT1      3616     TIP3     H1       HT       0.417000        1.0080           0
     11439 WT1      3616     TIP3     H2       HT       0.417000        1.0080           0
     11440 WT1      3617     TIP3     OH2      OT      -0.834000       15.9994           0
     11441 WT1      3617     TIP3     H1       HT       0.417000        1.0080           0
     11442 WT1      3617     TIP3     H2       HT       0.417000        1.0080           0
     11443 WT1      3618     TIP3     OH2      OT      -0.834000       15.9994           0
     11444 WT1      3618     TIP3     H1       HT       0.417000        1.0080           0
     11445 WT1      3618     TIP3     H2       HT       0.417000        1.0080           0
     11446 WT1      3619     TIP3     OH2      OT      -0.834000       15.9994           0
     11447 WT1      3619     TIP3     H1       HT       0.417000        1.0080           0
     11448 WT1      3619     TIP3     H2       HT       0.417000        1.0080           0
     11449 WT1      3620     TIP3     OH2      OT      -0.834000       15.9994           0
     11450 WT1      3620     TIP3     H1       HT       0.417000        1.0080           0
     11451 WT1      3620     TIP3     H2       HT       0.417000        1.0080           0
     11452 WT1      3621     TIP3     OH2      OT      -0.834000       15.9994           0
     11453 WT1      3621     TIP3     H1       HT       0.417000        1.0080           0
     11454 WT1      3621     TIP3     H2       HT       0.417000        1.0080           0
     11455 WT1      3622     TIP3     OH2      OT      -0.834000       15.9994           0
     11456 WT1      3622     TIP3     H1       HT       0.417000        1.0080           0
     11457 WT1      3622     TIP3     H2       HT       0.417000        1.0080           0
     11458 WT1      3623     TIP3     OH2      OT      -0.834000       15.9994           0
     11459 WT1      3623     TIP3     H1       HT       0.417000        1.0080           0
     11460 WT1      3623     TIP3     H2       HT       0.417000        1.0080           0
     11461 WT1      3624     TIP3     OH2      OT      -0.834000       15.9994           0
     11462 WT1      3624     TIP3     H1       HT       0.417000        1.0080           0
     11463 WT1      3624     TIP3     H2       HT       0.417000        1.0080           0
     11464 WT1      3625     TIP3     OH2      OT      -0.834000       15.9994           0
     11465 WT1      3625     TIP3     H1       HT       0.417000        1.0080           0
     11466 WT1      3625     TIP3     H2       HT       0.417000        1.0080           0
     11467 WT1      3626     TIP3     OH2      OT      -0.834000       15.9994           0
     11468 WT1      3626     TIP3     H1       HT       0.417000        1.0080           0
     11469 WT1      3626     TIP3     H2       HT       0.417000        1.0080           0
     11470 WT1      3627     TIP3     OH2      OT      -0.834000       15.9994           0
     11471 WT1      3627     TIP3     H1       HT       0.417000        1.0080           0
     11472 WT1      3627     TIP3     H2       HT       0.417000        1.0080           0
     11473 WT1      3628     TIP3     OH2      OT      -0.834000       15.9994           0
     11474 WT1      3628     TIP3     H1       HT       0.417000        1.0080           0
     11475 WT1      3628     TIP3     H2       HT       0.417000        1.0080           0
     11476 WT1      3629     TIP3     OH2      OT      -0.834000       15.9994           0
     11477 WT1      3629     TIP3     H1       HT       0.417000        1.0080           0
     11478 WT1      3629     TIP3     H2       HT       0.417000        1.0080           0
     11479 WT1      3630     TIP3     OH2      OT      -0.834000       15.9994           0
     11480 WT1      3630     TIP3     H1       HT       0.417000        1.0080           0
     11481 WT1      3630     TIP3     H2       HT       0.417000        1.0080           0
     11482 WT1      3631     TIP3     OH2      OT      -0.834000       15.9994           0
     11483 WT1      3631     TIP3     H1       HT       0.417000        1.0080           0
     11484 WT1      3631     TIP3     H2       HT       0.417000        1.0080           0
     11485 WT1      3632     TIP3     OH2      OT      -0.834000       15.9994           0
     11486 WT1      3632     TIP3     H1       HT       0.417000        1.0080           0
     11487 WT1      3632     TIP3     H2       HT       0.417000        1.0080           0
     11488 WT1      3633     TIP3     OH2      OT      -0.834000       15.9994           0
     11489 WT1      3633     TIP3     H1       HT       0.417000        1.0080           0
     11490 WT1      3633     TIP3     H2       HT       0.417000        1.0080           0
     11491 WT1      3634     TIP3     OH2      OT      -0.834000       15.9994           0
     11492 WT1      3634     TIP3     H1       HT       0.417000        1.0080           0
     11493 WT1      3634     TIP3     H2       HT       0.417000        1.0080           0
     11494 WT1      3635     TIP3     OH2      OT      -0.834000       15.9994           0
     11495 WT1      3635     TIP3     H1       HT       0.417000        1.0080           0
     11496 WT1      3635     TIP3     H2       HT       0.417000        1.0080           0
     11497 WT1      3636     TIP3     OH2      OT      -0.834000       15.9994           0
     11498 WT1      3636     TIP3     H1       HT       0.417000        1.0080           0
     11499 WT1      3636     TIP3     H2       HT       0.417000        1.0080           0
     11500 WT1      3637     TIP3     OH2      OT      -0.834000       15.9994           0
     11501 WT1      3637     TIP3     H1       HT       0.417000        1.0080           0
     11502 WT1      3637     TIP3     H2       HT       0.417000        1.0080           0
     11503 WT1      3638     TIP3     OH2      OT      -0.834000       15.9994           0
     11504 WT1      3638     TIP3     H1       HT       0.417000        1.0080           0
     11505 WT1      3638     TIP3     H2       HT       0.417000        1.0080           0
     11506 WT1      3639     TIP3     OH2      OT      -0.834000       15.9994           0
     11507 WT1      3639     TIP3     H1       HT       0.417000        1.0080           0
     11508 WT1      3639     TIP3     H2       HT       0.417000        1.0080           0
     11509 WT1      3640     TIP3     OH2      OT      -0.834000       15.9994           0
     11510 WT1      3640     TIP3     H1       HT       0.417000        1.0080           0
     11511 WT1      3640     TIP3     H2       HT       0.417000        1.0080           0
     11512 WT1      3641     TIP3     OH2      OT      -0.834000       15.9994           0
     11513 WT1      3641     TIP3     H1       HT       0.417000        1.0080           0
     11514 WT1      3641     TIP3     H2       HT       0.417000        1.0080           0
     11515 WT1      3642     TIP3     OH2      OT      -0.834000       15.9994           0
     11516 WT1      3642     TIP3     H1       HT       0.417000        1.0080           0
     11517 WT1      3642     TIP3     H2       HT       0.417000        1.0080           0
     11518 WT1      3643     TIP3     OH2      OT      -0.834000       15.9994           0
     11519 WT1      3643     TIP3     H1       HT       0.417000        1.0080           0
     11520 WT1      3643     TIP3     H2       HT       0.417000        1.0080           0
     11521 WT1      3644     TIP3     OH2      OT      -0.834000       15.9994           0
     11522 WT1      3644     TIP3     H1       HT       0.417000        1.0080           0
     11523 WT1      3644     TIP3     H2       HT       0.417000        1.0080           0
     11524 WT1      3645     TIP3     OH2      OT      -0.834000       15.9994           0
     11525 WT1      3645     TIP3     H1       HT       0.417000        1.0080           0
     11526 WT1      3645     TIP3     H2       HT       0.417000        1.0080           0
     11527 WT1      3646     TIP3     OH2      OT      -0.834000       15.9994           0
     11528 WT1      3646     TIP3     H1       HT       0.417000        1.0080           0
     11529 WT1      3646     TIP3     H2       HT       0.417000        1.0080           0
     11530 WT1      3647     TIP3     OH2      OT      -0.834000       15.9994           0
     11531 WT1      3647     TIP3     H1       HT       0.417000        1.0080           0
     11532 WT1      3647     TIP3     H2       HT       0.417000        1.0080           0
     11533 WT1      3648     TIP3     OH2      OT      -0.834000       15.9994           0
     11534 WT1      3648     TIP3     H1       HT       0.417000        1.0080           0
     11535 WT1      3648     TIP3     H2       HT       0.417000        1.0080           0
     11536 WT1      3649     TIP3     OH2      OT      -0.834000       15.9994           0
     11537 WT1      3649     TIP3     H1       HT       0.417000        1.0080           0
     11538 WT1      3649     TIP3     H2       HT       0.417000        1.0080           0
     11539 WT1      3650     TIP3     OH2      OT      -0.834000       15.9994           0
     11540 WT1      3650     TIP3     H1       HT       0.417000        1.0080           0
     11541 WT1      3650     TIP3     H2       HT       0.417000        1.0080           0
     11542 WT1      3651     TIP3     OH2      OT      -0.834000       15.9994           0
     11543 WT1      3651     TIP3     H1       HT       0.417000        1.0080           0
     11544 WT1      3651     TIP3     H2       HT       0.417000        1.0080           0
     11545 WT1      3652     TIP3     OH2      OT      -0.834000       15.9994           0
     11546 WT1      3652     TIP3     H1       HT       0.417000        1.0080           0
     11547 WT1      3652     TIP3     H2       HT       0.417000        1.0080           0
     11548 WT1      3653     TIP3     OH2      OT      -0.834000       15.9994           0
     11549 WT1      3653     TIP3     H1       HT       0.417000        1.0080           0
     11550 WT1      3653     TIP3     H2       HT       0.417000        1.0080           0
     11551 WT1      3654     TIP3     OH2      OT      -0.834000       15.9994           0
     11552 WT1      3654     TIP3     H1       HT       0.417000        1.0080           0
     11553 WT1      3654     TIP3     H2       HT       0.417000        1.0080           0
     11554 WT1      3655     TIP3     OH2      OT      -0.834000       15.9994           0
     11555 WT1      3655     TIP3     H1       HT       0.417000        1.0080           0
     11556 WT1      3655     TIP3     H2       HT       0.417000        1.0080           0
     11557 WT1      3656     TIP3     OH2      OT      -0.834000       15.9994           0
     11558 WT1      3656     TIP3     H1       HT       0.417000        1.0080           0
     11559 WT1      3656     TIP3     H2       HT       0.417000        1.0080           0
     11560 WT1      3657     TIP3     OH2      OT      -0.834000       15.9994           0
     11561 WT1      3657     TIP3     H1       HT       0.417000        1.0080           0
     11562 WT1      3657     TIP3     H2       HT       0.417000        1.0080           0
     11563 WT1      3658     TIP3     OH2      OT      -0.834000       15.9994           0
     11564 WT1      3658     TIP3     H1       HT       0.417000        1.0080           0
     11565 WT1      3658     TIP3     H2       HT       0.417000        1.0080           0
     11566 WT1      3659     TIP3     OH2      OT      -0.834000       15.9994           0
     11567 WT1      3659     TIP3     H1       HT       0.417000        1.0080           0
     11568 WT1      3659     TIP3     H2       HT       0.417000        1.0080           0
     11569 WT1      3660     TIP3     OH2      OT      -0.834000       15.9994           0
     11570 WT1      3660     TIP3     H1       HT       0.417000        1.0080           0
     11571 WT1      3660     TIP3     H2       HT       0.417000        1.0080           0
     11572 WT1      3661     TIP3     OH2      OT      -0.834000       15.9994           0
     11573 WT1      3661     TIP3     H1       HT       0.417000        1.0080           0
     11574 WT1      3661     TIP3     H2       HT       0.417000        1.0080           0
     11575 WT1      3662     TIP3     OH2      OT      -0.834000       15.9994           0
     11576 WT1      3662     TIP3     H1       HT       0.417000        1.0080           0
     11577 WT1      3662     TIP3     H2       HT       0.417000        1.0080           0
     11578 WT1      3663     TIP3     OH2      OT      -0.834000       15.9994           0
     11579 WT1      3663     TIP3     H1       HT       0.417000        1.0080           0
     11580 WT1      3663     TIP3     H2       HT       0.417000        1.0080           0
     11581 WT1      3664     TIP3     OH2      OT      -0.834000       15.9994           0
     11582 WT1      3664     TIP3     H1       HT       0.417000        1.0080           0
     11583 WT1      3664     TIP3     H2       HT       0.417000        1.0080           0
     11584 WT1      3665     TIP3     OH2      OT      -0.834000       15.9994           0
     11585 WT1      3665     TIP3     H1       HT       0.417000        1.0080           0
     11586 WT1      3665     TIP3     H2       HT       0.417000        1.0080           0
     11587 WT1      3666     TIP3     OH2      OT      -0.834000       15.9994           0
     11588 WT1      3666     TIP3     H1       HT       0.417000        1.0080           0
     11589 WT1      3666     TIP3     H2       HT       0.417000        1.0080           0
     11590 WT1      3667     TIP3     OH2      OT      -0.834000       15.9994           0
     11591 WT1      3667     TIP3     H1       HT       0.417000        1.0080           0
     11592 WT1      3667     TIP3     H2       HT       0.417000        1.0080           0
     11593 WT1      3668     TIP3     OH2      OT      -0.834000       15.9994           0
     11594 WT1      3668     TIP3     H1       HT       0.417000        1.0080           0
     11595 WT1      3668     TIP3     H2       HT       0.417000        1.0080           0
     11596 WT1      3669     TIP3     OH2      OT      -0.834000       15.9994           0
     11597 WT1      3669     TIP3     H1       HT       0.417000        1.0080           0
     11598 WT1      3669     TIP3     H2       HT       0.417000        1.0080           0
     11599 WT1      3670     TIP3     OH2      OT      -0.834000       15.9994           0
     11600 WT1      3670     TIP3     H1       HT       0.417000        1.0080           0
     11601 WT1      3670     TIP3     H2       HT       0.417000        1.0080           0
     11602 WT1      3671     TIP3     OH2      OT      -0.834000       15.9994           0
     11603 WT1      3671     TIP3     H1       HT       0.417000        1.0080           0
     11604 WT1      3671     TIP3     H2       HT       0.417000        1.0080           0
     11605 WT1      3672     TIP3     OH2      OT      -0.834000       15.9994           0
     11606 WT1      3672     TIP3     H1       HT       0.417000        1.0080           0
     11607 WT1      3672     TIP3     H2       HT       0.417000        1.0080           0
     11608 WT1      3673     TIP3     OH2      OT      -0.834000       15.9994           0
     11609 WT1      3673     TIP3     H1       HT       0.417000        1.0080           0
     11610 WT1      3673     TIP3     H2       HT       0.417000        1.0080           0
     11611 WT1      3674     TIP3     OH2      OT      -0.834000       15.9994           0
     11612 WT1      3674     TIP3     H1       HT       0.417000        1.0080           0
     11613 WT1      3674     TIP3     H2       HT       0.417000        1.0080           0
     11614 WT1      3675     TIP3     OH2      OT      -0.834000       15.9994           0
     11615 WT1      3675     TIP3     H1       HT       0.417000        1.0080           0
     11616 WT1      3675     TIP3     H2       HT       0.417000        1.0080           0
     11617 WT1      3676     TIP3     OH2      OT      -0.834000       15.9994           0
     11618 WT1      3676     TIP3     H1       HT       0.417000        1.0080           0
     11619 WT1      3676     TIP3     H2       HT       0.417000        1.0080           0
     11620 WT1      3677     TIP3     OH2      OT      -0.834000       15.9994           0
     11621 WT1      3677     TIP3     H1       HT       0.417000        1.0080           0
     11622 WT1      3677     TIP3     H2       HT       0.417000        1.0080           0
     11623 WT1      3678     TIP3     OH2      OT      -0.834000       15.9994           0
     11624 WT1      3678     TIP3     H1       HT       0.417000        1.0080           0
     11625 WT1      3678     TIP3     H2       HT       0.417000        1.0080           0
     11626 WT1      3679     TIP3     OH2      OT      -0.834000       15.9994           0
     11627 WT1      3679     TIP3     H1       HT       0.417000        1.0080           0
     11628 WT1      3679     TIP3     H2       HT       0.417000        1.0080           0
     11629 WT1      3680     TIP3     OH2      OT      -0.834000       15.9994           0
     11630 WT1      3680     TIP3     H1       HT       0.417000        1.0080           0
     11631 WT1      3680     TIP3     H2       HT       0.417000        1.0080           0
     11632 WT1      3681     TIP3     OH2      OT      -0.834000       15.9994           0
     11633 WT1      3681     TIP3     H1       HT       0.417000        1.0080           0
     11634 WT1      3681     TIP3     H2       HT       0.417000        1.0080           0
     11635 WT1      3682     TIP3     OH2      OT      -0.834000       15.9994           0
     11636 WT1      3682     TIP3     H1       HT       0.417000        1.0080           0
     11637 WT1      3682     TIP3     H2       HT       0.417000        1.0080           0
     11638 WT1      3683     TIP3     OH2      OT      -0.834000       15.9994           0
     11639 WT1      3683     TIP3     H1       HT       0.417000        1.0080           0
     11640 WT1      3683     TIP3     H2       HT       0.417000        1.0080           0
     11641 WT1      3684     TIP3     OH2      OT      -0.834000       15.9994           0
     11642 WT1      3684     TIP3     H1       HT       0.417000        1.0080           0
     11643 WT1      3684     TIP3     H2       HT       0.417000        1.0080           0
     11644 WT1      3685     TIP3     OH2      OT      -0.834000       15.9994           0
     11645 WT1      3685     TIP3     H1       HT       0.417000        1.0080           0
     11646 WT1      3685     TIP3     H2       HT       0.417000        1.0080           0
     11647 WT1      3686     TIP3     OH2      OT      -0.834000       15.9994           0
     11648 WT1      3686     TIP3     H1       HT       0.417000        1.0080           0
     11649 WT1      3686     TIP3     H2       HT       0.417000        1.0080           0
     11650 WT1      3687     TIP3     OH2      OT      -0.834000       15.9994           0
     11651 WT1      3687     TIP3     H1       HT       0.417000        1.0080           0
     11652 WT1      3687     TIP3     H2       HT       0.417000        1.0080           0
     11653 WT1      3688     TIP3     OH2      OT      -0.834000       15.9994           0
     11654 WT1      3688     TIP3     H1       HT       0.417000        1.0080           0
     11655 WT1      3688     TIP3     H2       HT       0.417000        1.0080           0
     11656 WT1      3689     TIP3     OH2      OT      -0.834000       15.9994           0
     11657 WT1      3689     TIP3     H1       HT       0.417000        1.0080           0
     11658 WT1      3689     TIP3     H2       HT       0.417000        1.0080           0
     11659 WT1      3690     TIP3     OH2      OT      -0.834000       15.9994           0
     11660 WT1      3690     TIP3     H1       HT       0.417000        1.0080           0
     11661 WT1      3690     TIP3     H2       HT       0.417000        1.0080           0
     11662 WT1      3691     TIP3     OH2      OT      -0.834000       15.9994           0
     11663 WT1      3691     TIP3     H1       HT       0.417000        1.0080           0
     11664 WT1      3691     TIP3     H2       HT       0.417000        1.0080           0
     11665 WT1      3692     TIP3     OH2      OT      -0.834000       15.9994           0
     11666 WT1      3692     TIP3     H1       HT       0.417000        1.0080           0
     11667 WT1      3692     TIP3     H2       HT       0.417000        1.0080           0
     11668 WT1      3693     TIP3     OH2      OT      -0.834000       15.9994           0
     11669 WT1      3693     TIP3     H1       HT       0.417000        1.0080           0
     11670 WT1      3693     TIP3     H2       HT       0.417000        1.0080           0
     11671 WT1      3694     TIP3     OH2      OT      -0.834000       15.9994           0
     11672 WT1      3694     TIP3     H1       HT       0.417000        1.0080           0
     11673 WT1      3694     TIP3     H2       HT       0.417000        1.0080           0
     11674 WT1      3695     TIP3     OH2      OT      -0.834000       15.9994           0
     11675 WT1      3695     TIP3     H1       HT       0.417000        1.0080           0
     11676 WT1      3695     TIP3     H2       HT       0.417000        1.0080           0
     11677 WT1      3696     TIP3     OH2      OT      -0.834000       15.9994           0
     11678 WT1      3696     TIP3     H1       HT       0.417000        1.0080           0
     11679 WT1      3696     TIP3     H2       HT       0.417000        1.0080           0
     11680 WT1      3697     TIP3     OH2      OT      -0.834000       15.9994           0
     11681 WT1      3697     TIP3     H1       HT       0.417000        1.0080           0
     11682 WT1      3697     TIP3     H2       HT       0.417000        1.0080           0
     11683 WT1      3698     TIP3     OH2      OT      -0.834000       15.9994           0
     11684 WT1      3698     TIP3     H1       HT       0.417000        1.0080           0
     11685 WT1      3698     TIP3     H2       HT       0.417000        1.0080           0
     11686 WT1      3699     TIP3     OH2      OT      -0.834000       15.9994           0
     11687 WT1      3699     TIP3     H1       HT       0.417000        1.0080           0
     11688 WT1      3699     TIP3     H2       HT       0.417000        1.0080           0
     11689 WT1      3700     TIP3     OH2      OT      -0.834000       15.9994           0
     11690 WT1      3700     TIP3     H1       HT       0.417000        1.0080           0
     11691 WT1      3700     TIP3     H2       HT       0.417000        1.0080           0
     11692 WT1      3701     TIP3     OH2      OT      -0.834000       15.9994           0
     11693 WT1      3701     TIP3     H1       HT       0.417000        1.0080           0
     11694 WT1      3701     TIP3     H2       HT       0.417000        1.0080           0
     11695 WT1      3702     TIP3     OH2      OT      -0.834000       15.9994           0
     11696 WT1      3702     TIP3     H1       HT       0.417000        1.0080           0
     11697 WT1      3702     TIP3     H2       HT       0.417000        1.0080           0
     11698 WT1      3703     TIP3     OH2      OT      -0.834000       15.9994           0
     11699 WT1      3703     TIP3     H1       HT       0.417000        1.0080           0
     11700 WT1      3703     TIP3     H2       HT       0.417000        1.0080           0
     11701 WT1      3704     TIP3     OH2      OT      -0.834000       15.9994           0
     11702 WT1      3704     TIP3     H1       HT       0.417000        1.0080           0
     11703 WT1      3704     TIP3     H2       HT       0.417000        1.0080           0
     11704 WT1      3705     TIP3     OH2      OT      -0.834000       15.9994           0
     11705 WT1      3705     TIP3     H1       HT       0.417000        1.0080           0
     11706 WT1      3705     TIP3     H2       HT       0.417000        1.0080           0
     11707 WT1      3706     TIP3     OH2      OT      -0.834000       15.9994           0
     11708 WT1      3706     TIP3     H1       HT       0.417000        1.0080           0
     11709 WT1      3706     TIP3     H2       HT       0.417000        1.0080           0
     11710 WT1      3707     TIP3     OH2      OT      -0.834000       15.9994           0
     11711 WT1      3707     TIP3     H1       HT       0.417000        1.0080           0
     11712 WT1      3707     TIP3     H2       HT       0.417000        1.0080           0
     11713 WT1      3708     TIP3     OH2      OT      -0.834000       15.9994           0
     11714 WT1      3708     TIP3     H1       HT       0.417000        1.0080           0
     11715 WT1      3708     TIP3     H2       HT       0.417000        1.0080           0
     11716 WT1      3709     TIP3     OH2      OT      -0.834000       15.9994           0
     11717 WT1      3709     TIP3     H1       HT       0.417000        1.0080           0
     11718 WT1      3709     TIP3     H2       HT       0.417000        1.0080           0
     11719 WT1      3710     TIP3     OH2      OT      -0.834000       15.9994           0
     11720 WT1      3710     TIP3     H1       HT       0.417000        1.0080           0
     11721 WT1      3710     TIP3     H2       HT       0.417000        1.0080           0
     11722 WT1      3711     TIP3     OH2      OT      -0.834000       15.9994           0
     11723 WT1      3711     TIP3     H1       HT       0.417000        1.0080           0
     11724 WT1      3711     TIP3     H2       HT       0.417000        1.0080           0
     11725 WT1      3712     TIP3     OH2      OT      -0.834000       15.9994           0
     11726 WT1      3712     TIP3     H1       HT       0.417000        1.0080           0
     11727 WT1      3712     TIP3     H2       HT       0.417000        1.0080           0
     11728 WT1      3713     TIP3     OH2      OT      -0.834000       15.9994           0
     11729 WT1      3713     TIP3     H1       HT       0.417000        1.0080           0
     11730 WT1      3713     TIP3     H2       HT       0.417000        1.0080           0
     11731 WT1      3714     TIP3     OH2      OT      -0.834000       15.9994           0
     11732 WT1      3714     TIP3     H1       HT       0.417000        1.0080           0
     11733 WT1      3714     TIP3     H2       HT       0.417000        1.0080           0
     11734 WT1      3715     TIP3     OH2      OT      -0.834000       15.9994           0
     11735 WT1      3715     TIP3     H1       HT       0.417000        1.0080           0
     11736 WT1      3715     TIP3     H2       HT       0.417000        1.0080           0
     11737 WT1      3716     TIP3     OH2      OT      -0.834000       15.9994           0
     11738 WT1      3716     TIP3     H1       HT       0.417000        1.0080           0
     11739 WT1      3716     TIP3     H2       HT       0.417000        1.0080           0
     11740 WT1      3717     TIP3     OH2      OT      -0.834000       15.9994           0
     11741 WT1      3717     TIP3     H1       HT       0.417000        1.0080           0
     11742 WT1      3717     TIP3     H2       HT       0.417000        1.0080           0
     11743 WT1      3718     TIP3     OH2      OT      -0.834000       15.9994           0
     11744 WT1      3718     TIP3     H1       HT       0.417000        1.0080           0
     11745 WT1      3718     TIP3     H2       HT       0.417000        1.0080           0
     11746 WT1      3719     TIP3     OH2      OT      -0.834000       15.9994           0
     11747 WT1      3719     TIP3     H1       HT       0.417000        1.0080           0
     11748 WT1      3719     TIP3     H2       HT       0.417000        1.0080           0
     11749 WT1      3720     TIP3     OH2      OT      -0.834000       15.9994           0
     11750 WT1      3720     TIP3     H1       HT       0.417000        1.0080           0
     11751 WT1      3720     TIP3     H2       HT       0.417000        1.0080           0
     11752 WT1      3721     TIP3     OH2      OT      -0.834000       15.9994           0
     11753 WT1      3721     TIP3     H1       HT       0.417000        1.0080           0
     11754 WT1      3721     TIP3     H2       HT       0.417000        1.0080           0
     11755 WT1      3722     TIP3     OH2      OT      -0.834000       15.9994           0
     11756 WT1      3722     TIP3     H1       HT       0.417000        1.0080           0
     11757 WT1      3722     TIP3     H2       HT       0.417000        1.0080           0
     11758 WT1      3723     TIP3     OH2      OT      -0.834000       15.9994           0
     11759 WT1      3723     TIP3     H1       HT       0.417000        1.0080           0
     11760 WT1      3723     TIP3     H2       HT       0.417000        1.0080           0
     11761 WT1      3724     TIP3     OH2      OT      -0.834000       15.9994           0
     11762 WT1      3724     TIP3     H1       HT       0.417000        1.0080           0
     11763 WT1      3724     TIP3     H2       HT       0.417000        1.0080           0
     11764 WT1      3725     TIP3     OH2      OT      -0.834000       15.9994           0
     11765 WT1      3725     TIP3     H1       HT       0.417000        1.0080           0
     11766 WT1      3725     TIP3     H2       HT       0.417000        1.0080           0
     11767 WT1      3726     TIP3     OH2      OT      -0.834000       15.9994           0
     11768 WT1      3726     TIP3     H1       HT       0.417000        1.0080           0
     11769 WT1      3726     TIP3     H2       HT       0.417000        1.0080           0
     11770 WT1      3727     TIP3     OH2      OT      -0.834000       15.9994           0
     11771 WT1      3727     TIP3     H1       HT       0.417000        1.0080           0
     11772 WT1      3727     TIP3     H2       HT       0.417000        1.0080           0
     11773 WT1      3728     TIP3     OH2      OT      -0.834000       15.9994           0
     11774 WT1      3728     TIP3     H1       HT       0.417000        1.0080           0
     11775 WT1      3728     TIP3     H2       HT       0.417000        1.0080           0
     11776 WT1      3729     TIP3     OH2      OT      -0.834000       15.9994           0
     11777 WT1      3729     TIP3     H1       HT       0.417000        1.0080           0
     11778 WT1      3729     TIP3     H2       HT       0.417000        1.0080           0
     11779 WT1      3730     TIP3     OH2      OT      -0.834000       15.9994           0
     11780 WT1      3730     TIP3     H1       HT       0.417000        1.0080           0
     11781 WT1      3730     TIP3     H2       HT       0.417000        1.0080           0
     11782 WT1      3731     TIP3     OH2      OT      -0.834000       15.9994           0
     11783 WT1      3731     TIP3     H1       HT       0.417000        1.0080           0
     11784 WT1      3731     TIP3     H2       HT       0.417000        1.0080           0
     11785 WT1      3732     TIP3     OH2      OT      -0.834000       15.9994           0
     11786 WT1      3732     TIP3     H1       HT       0.417000        1.0080           0
     11787 WT1      3732     TIP3     H2       HT       0.417000        1.0080           0
     11788 WT1      3733     TIP3     OH2      OT      -0.834000       15.9994           0
     11789 WT1      3733     TIP3     H1       HT       0.417000        1.0080           0
     11790 WT1      3733     TIP3     H2       HT       0.417000        1.0080           0
     11791 WT1      3734     TIP3     OH2      OT      -0.834000       15.9994           0
     11792 WT1      3734     TIP3     H1       HT       0.417000        1.0080           0
     11793 WT1      3734     TIP3     H2       HT       0.417000        1.0080           0
     11794 WT1      3735     TIP3     OH2      OT      -0.834000       15.9994           0
     11795 WT1      3735     TIP3     H1       HT       0.417000        1.0080           0
     11796 WT1      3735     TIP3     H2       HT       0.417000        1.0080           0
     11797 WT1      3736     TIP3     OH2      OT      -0.834000       15.9994           0
     11798 WT1      3736     TIP3     H1       HT       0.417000        1.0080           0
     11799 WT1      3736     TIP3     H2       HT       0.417000        1.0080           0
     11800 WT1      3737     TIP3     OH2      OT      -0.834000       15.9994           0
     11801 WT1      3737     TIP3     H1       HT       0.417000        1.0080           0
     11802 WT1      3737     TIP3     H2       HT       0.417000        1.0080           0
     11803 WT1      3738     TIP3     OH2      OT      -0.834000       15.9994           0
     11804 WT1      3738     TIP3     H1       HT       0.417000        1.0080           0
     11805 WT1      3738     TIP3     H2       HT       0.417000        1.0080           0
     11806 WT1      3739     TIP3     OH2      OT      -0.834000       15.9994           0
     11807 WT1      3739     TIP3     H1       HT       0.417000        1.0080           0
     11808 WT1      3739     TIP3     H2       HT       0.417000        1.0080           0
     11809 WT1      3740     TIP3     OH2      OT      -0.834000       15.9994           0
     11810 WT1      3740     TIP3     H1       HT       0.417000        1.0080           0
     11811 WT1      3740     TIP3     H2       HT       0.417000        1.0080           0
     11812 WT1      3741     TIP3     OH2      OT      -0.834000       15.9994           0
     11813 WT1      3741     TIP3     H1       HT       0.417000        1.0080           0
     11814 WT1      3741     TIP3     H2       HT       0.417000        1.0080           0
     11815 WT1      3742     TIP3     OH2      OT      -0.834000       15.9994           0
     11816 WT1      3742     TIP3     H1       HT       0.417000        1.0080           0
     11817 WT1      3742     TIP3     H2       HT       0.417000        1.0080           0
     11818 WT1      3743     TIP3     OH2      OT      -0.834000       15.9994           0
     11819 WT1      3743     TIP3     H1       HT       0.417000        1.0080           0
     11820 WT1      3743     TIP3     H2       HT       0.417000        1.0080           0
     11821 WT1      3744     TIP3     OH2      OT      -0.834000       15.9994           0
     11822 WT1      3744     TIP3     H1       HT       0.417000        1.0080           0
     11823 WT1      3744     TIP3     H2       HT       0.417000        1.0080           0
     11824 WT1      3745     TIP3     OH2      OT      -0.834000       15.9994           0
     11825 WT1      3745     TIP3     H1       HT       0.417000        1.0080           0
     11826 WT1      3745     TIP3     H2       HT       0.417000        1.0080           0
     11827 WT1      3746     TIP3     OH2      OT      -0.834000       15.9994           0
     11828 WT1      3746     TIP3     H1       HT       0.417000        1.0080           0
     11829 WT1      3746     TIP3     H2       HT       0.417000        1.0080           0
     11830 WT1      3747     TIP3     OH2      OT      -0.834000       15.9994           0
     11831 WT1      3747     TIP3     H1       HT       0.417000        1.0080           0
     11832 WT1      3747     TIP3     H2       HT       0.417000        1.0080           0
     11833 WT1      3748     TIP3     OH2      OT      -0.834000       15.9994           0
     11834 WT1      3748     TIP3     H1       HT       0.417000        1.0080           0
     11835 WT1      3748     TIP3     H2       HT       0.417000        1.0080           0
     11836 WT1      3749     TIP3     OH2      OT      -0.834000       15.9994           0
     11837 WT1      3749     TIP3     H1       HT       0.417000        1.0080           0
     11838 WT1      3749     TIP3     H2       HT       0.417000        1.0080           0
     11839 WT1      3750     TIP3     OH2      OT      -0.834000       15.9994           0
     11840 WT1      3750     TIP3     H1       HT       0.417000        1.0080           0
     11841 WT1      3750     TIP3     H2       HT       0.417000        1.0080           0
     11842 WT1      3751     TIP3     OH2      OT      -0.834000       15.9994           0
     11843 WT1      3751     TIP3     H1       HT       0.417000        1.0080           0
     11844 WT1      3751     TIP3     H2       HT       0.417000        1.0080           0
     11845 WT1      3752     TIP3     OH2      OT      -0.834000       15.9994           0
     11846 WT1      3752     TIP3     H1       HT       0.417000        1.0080           0
     11847 WT1      3752     TIP3     H2       HT       0.417000        1.0080           0
     11848 WT1      3753     TIP3     OH2      OT      -0.834000       15.9994           0
     11849 WT1      3753     TIP3     H1       HT       0.417000        1.0080           0
     11850 WT1      3753     TIP3     H2       HT       0.417000        1.0080           0
     11851 WT1      3754     TIP3     OH2      OT      -0.834000       15.9994           0
     11852 WT1      3754     TIP3     H1       HT       0.417000        1.0080           0
     11853 WT1      3754     TIP3     H2       HT       0.417000        1.0080           0
     11854 WT1      3755     TIP3     OH2      OT      -0.834000       15.9994           0
     11855 WT1      3755     TIP3     H1       HT       0.417000        1.0080           0
     11856 WT1      3755     TIP3     H2       HT       0.417000        1.0080           0
     11857 WT1      3756     TIP3     OH2      OT      -0.834000       15.9994           0
     11858 WT1      3756     TIP3     H1       HT       0.417000        1.0080           0
     11859 WT1      3756     TIP3     H2       HT       0.417000        1.0080           0
     11860 WT1      3757     TIP3     OH2      OT      -0.834000       15.9994           0
     11861 WT1      3757     TIP3     H1       HT       0.417000        1.0080           0
     11862 WT1      3757     TIP3     H2       HT       0.417000        1.0080           0
     11863 WT1      3758     TIP3     OH2      OT      -0.834000       15.9994           0
     11864 WT1      3758     TIP3     H1       HT       0.417000        1.0080           0
     11865 WT1      3758     TIP3     H2       HT       0.417000        1.0080           0
     11866 WT1      3759     TIP3     OH2      OT      -0.834000       15.9994           0
     11867 WT1      3759     TIP3     H1       HT       0.417000        1.0080           0
     11868 WT1      3759     TIP3     H2       HT       0.417000        1.0080           0
     11869 WT1      3760     TIP3     OH2      OT      -0.834000       15.9994           0
     11870 WT1      3760     TIP3     H1       HT       0.417000        1.0080           0
     11871 WT1      3760     TIP3     H2       HT       0.417000        1.0080           0
     11872 WT1      3761     TIP3     OH2      OT      -0.834000       15.9994           0
     11873 WT1      3761     TIP3     H1       HT       0.417000        1.0080           0
     11874 WT1      3761     TIP3     H2       HT       0.417000        1.0080           0
     11875 WT1      3762     TIP3     OH2      OT      -0.834000       15.9994           0
     11876 WT1      3762     TIP3     H1       HT       0.417000        1.0080           0
     11877 WT1      3762     TIP3     H2       HT       0.417000        1.0080           0
     11878 WT1      3763     TIP3     OH2      OT      -0.834000       15.9994           0
     11879 WT1      3763     TIP3     H1       HT       0.417000        1.0080           0
     11880 WT1      3763     TIP3     H2       HT       0.417000        1.0080           0
     11881 WT1      3764     TIP3     OH2      OT      -0.834000       15.9994           0
     11882 WT1      3764     TIP3     H1       HT       0.417000        1.0080           0
     11883 WT1      3764     TIP3     H2       HT       0.417000        1.0080           0
     11884 WT1      3765     TIP3     OH2      OT      -0.834000       15.9994           0
     11885 WT1      3765     TIP3     H1       HT       0.417000        1.0080           0
     11886 WT1      3765     TIP3     H2       HT       0.417000        1.0080           0
     11887 WT1      3766     TIP3     OH2      OT      -0.834000       15.9994           0
     11888 WT1      3766     TIP3     H1       HT       0.417000        1.0080           0
     11889 WT1      3766     TIP3     H2       HT       0.417000        1.0080           0
     11890 WT1      3767     TIP3     OH2      OT      -0.834000       15.9994           0
     11891 WT1      3767     TIP3     H1       HT       0.417000        1.0080           0
     11892 WT1      3767     TIP3     H2       HT       0.417000        1.0080           0
     11893 WT1      3768     TIP3     OH2      OT      -0.834000       15.9994           0
     11894 WT1      3768     TIP3     H1       HT       0.417000        1.0080           0
     11895 WT1      3768     TIP3     H2       HT       0.417000        1.0080           0
     11896 WT1      3769     TIP3     OH2      OT      -0.834000       15.9994           0
     11897 WT1      3769     TIP3     H1       HT       0.417000        1.0080           0
     11898 WT1      3769     TIP3     H2       HT       0.417000        1.0080           0
     11899 WT1      3770     TIP3     OH2      OT      -0.834000       15.9994           0
     11900 WT1      3770     TIP3     H1       HT       0.417000        1.0080           0
     11901 WT1      3770     TIP3     H2       HT       0.417000        1.0080           0
     11902 WT1      3771     TIP3     OH2      OT      -0.834000       15.9994           0
     11903 WT1      3771     TIP3     H1       HT       0.417000        1.0080           0
     11904 WT1      3771     TIP3     H2       HT       0.417000        1.0080           0
     11905 WT1      3772     TIP3     OH2      OT      -0.834000       15.9994           0
     11906 WT1      3772     TIP3     H1       HT       0.417000        1.0080           0
     11907 WT1      3772     TIP3     H2       HT       0.417000        1.0080           0
     11908 WT1      3773     TIP3     OH2      OT      -0.834000       15.9994           0
     11909 WT1      3773     TIP3     H1       HT       0.417000        1.0080           0
     11910 WT1      3773     TIP3     H2       HT       0.417000        1.0080           0
     11911 WT1      3774     TIP3     OH2      OT      -0.834000       15.9994           0
     11912 WT1      3774     TIP3     H1       HT       0.417000        1.0080           0
     11913 WT1      3774     TIP3     H2       HT       0.417000        1.0080           0
     11914 WT1      3775     TIP3     OH2      OT      -0.834000       15.9994           0
     11915 WT1      3775     TIP3     H1       HT       0.417000        1.0080           0
     11916 WT1      3775     TIP3     H2       HT       0.417000        1.0080           0
     11917 WT1      3776     TIP3     OH2      OT      -0.834000       15.9994           0
     11918 WT1      3776     TIP3     H1       HT       0.417000        1.0080           0
     11919 WT1      3776     TIP3     H2       HT       0.417000        1.0080           0
     11920 WT1      3777     TIP3     OH2      OT      -0.834000       15.9994           0
     11921 WT1      3777     TIP3     H1       HT       0.417000        1.0080           0
     11922 WT1      3777     TIP3     H2       HT       0.417000        1.0080           0
     11923 WT1      3778     TIP3     OH2      OT      -0.834000       15.9994           0
     11924 WT1      3778     TIP3     H1       HT       0.417000        1.0080           0
     11925 WT1      3778     TIP3     H2       HT       0.417000        1.0080           0
     11926 WT1      3779     TIP3     OH2      OT      -0.834000       15.9994           0
     11927 WT1      3779     TIP3     H1       HT       0.417000        1.0080           0
     11928 WT1      3779     TIP3     H2       HT       0.417000        1.0080           0
     11929 WT1      3780     TIP3     OH2      OT      -0.834000       15.9994           0
     11930 WT1      3780     TIP3     H1       HT       0.417000        1.0080           0
     11931 WT1      3780     TIP3     H2       HT       0.417000        1.0080           0
     11932 WT1      3781     TIP3     OH2      OT      -0.834000       15.9994           0
     11933 WT1      3781     TIP3     H1       HT       0.417000        1.0080           0
     11934 WT1      3781     TIP3     H2       HT       0.417000        1.0080           0
     11935 WT1      3782     TIP3     OH2      OT      -0.834000       15.9994           0
     11936 WT1      3782     TIP3     H1       HT       0.417000        1.0080           0
     11937 WT1      3782     TIP3     H2       HT       0.417000        1.0080           0
     11938 WT1      3783     TIP3     OH2      OT      -0.834000       15.9994           0
     11939 WT1      3783     TIP3     H1       HT       0.417000        1.0080           0
     11940 WT1      3783     TIP3     H2       HT       0.417000        1.0080           0
     11941 WT1      3784     TIP3     OH2      OT      -0.834000       15.9994           0
     11942 WT1      3784     TIP3     H1       HT       0.417000        1.0080           0
     11943 WT1      3784     TIP3     H2       HT       0.417000        1.0080           0
     11944 WT1      3785     TIP3     OH2      OT      -0.834000       15.9994           0
     11945 WT1      3785     TIP3     H1       HT       0.417000        1.0080           0
     11946 WT1      3785     TIP3     H2       HT       0.417000        1.0080           0
     11947 WT1      3786     TIP3     OH2      OT      -0.834000       15.9994           0
     11948 WT1      3786     TIP3     H1       HT       0.417000        1.0080           0
     11949 WT1      3786     TIP3     H2       HT       0.417000        1.0080           0
     11950 WT1      3787     TIP3     OH2      OT      -0.834000       15.9994           0
     11951 WT1      3787     TIP3     H1       HT       0.417000        1.0080           0
     11952 WT1      3787     TIP3     H2       HT       0.417000        1.0080           0
     11953 WT1      3788     TIP3     OH2      OT      -0.834000       15.9994           0
     11954 WT1      3788     TIP3     H1       HT       0.417000        1.0080           0
     11955 WT1      3788     TIP3     H2       HT       0.417000        1.0080           0
     11956 WT1      3789     TIP3     OH2      OT      -0.834000       15.9994           0
     11957 WT1      3789     TIP3     H1       HT       0.417000        1.0080           0
     11958 WT1      3789     TIP3     H2       HT       0.417000        1.0080           0
     11959 WT1      3790     TIP3     OH2      OT      -0.834000       15.9994           0
     11960 WT1      3790     TIP3     H1       HT       0.417000        1.0080           0
     11961 WT1      3790     TIP3     H2       HT       0.417000        1.0080           0
     11962 WT1      3791     TIP3     OH2      OT      -0.834000       15.9994           0
     11963 WT1      3791     TIP3     H1       HT       0.417000        1.0080           0
     11964 WT1      3791     TIP3     H2       HT       0.417000        1.0080           0
     11965 WT1      3792     TIP3     OH2      OT      -0.834000       15.9994           0
     11966 WT1      3792     TIP3     H1       HT       0.417000        1.0080           0
     11967 WT1      3792     TIP3     H2       HT       0.417000        1.0080           0
     11968 WT1      3793     TIP3     OH2      OT      -0.834000       15.9994           0
     11969 WT1      3793     TIP3     H1       HT       0.417000        1.0080           0
     11970 WT1      3793     TIP3     H2       HT       0.417000        1.0080           0
     11971 WT1      3794     TIP3     OH2      OT      -0.834000       15.9994           0
     11972 WT1      3794     TIP3     H1       HT       0.417000        1.0080           0
     11973 WT1      3794     TIP3     H2       HT       0.417000        1.0080           0
     11974 WT1      3795     TIP3     OH2      OT      -0.834000       15.9994           0
     11975 WT1      3795     TIP3     H1       HT       0.417000        1.0080           0
     11976 WT1      3795     TIP3     H2       HT       0.417000        1.0080           0
     11977 WT1      3796     TIP3     OH2      OT      -0.834000       15.9994           0
     11978 WT1      3796     TIP3     H1       HT       0.417000        1.0080           0
     11979 WT1      3796     TIP3     H2       HT       0.417000        1.0080           0
     11980 WT1      3797     TIP3     OH2      OT      -0.834000       15.9994           0
     11981 WT1      3797     TIP3     H1       HT       0.417000        1.0080           0
     11982 WT1      3797     TIP3     H2       HT       0.417000        1.0080           0
     11983 WT1      3798     TIP3     OH2      OT      -0.834000       15.9994           0
     11984 WT1      3798     TIP3     H1       HT       0.417000        1.0080           0
     11985 WT1      3798     TIP3     H2       HT       0.417000        1.0080           0
     11986 WT1      3799     TIP3     OH2      OT      -0.834000       15.9994           0
     11987 WT1      3799     TIP3     H1       HT       0.417000        1.0080           0
     11988 WT1      3799     TIP3     H2       HT       0.417000        1.0080           0
     11989 WT1      3800     TIP3     OH2      OT      -0.834000       15.9994           0
     11990 WT1      3800     TIP3     H1       HT       0.417000        1.0080           0
     11991 WT1      3800     TIP3     H2       HT       0.417000        1.0080           0
     11992 WT1      3801     TIP3     OH2      OT      -0.834000       15.9994           0
     11993 WT1      3801     TIP3     H1       HT       0.417000        1.0080           0
     11994 WT1      3801     TIP3     H2       HT       0.417000        1.0080           0
     11995 WT1      3802     TIP3     OH2      OT      -0.834000       15.9994           0
     11996 WT1      3802     TIP3     H1       HT       0.417000        1.0080           0
     11997 WT1      3802     TIP3     H2       HT       0.417000        1.0080           0
     11998 WT1      3803     TIP3     OH2      OT      -0.834000       15.9994           0
     11999 WT1      3803     TIP3     H1       HT       0.417000        1.0080           0
     12000 WT1      3803     TIP3     H2       HT       0.417000        1.0080           0
     12001 WT1      3804     TIP3     OH2      OT      -0.834000       15.9994           0
     12002 WT1      3804     TIP3     H1       HT       0.417000        1.0080           0
     12003 WT1      3804     TIP3     H2       HT       0.417000        1.0080           0
     12004 WT1      3805     TIP3     OH2      OT      -0.834000       15.9994           0
     12005 WT1      3805     TIP3     H1       HT       0.417000        1.0080           0
     12006 WT1      3805     TIP3     H2       HT       0.417000        1.0080           0
     12007 WT1      3806     TIP3     OH2      OT      -0.834000       15.9994           0
     12008 WT1      3806     TIP3     H1       HT       0.417000        1.0080           0
     12009 WT1      3806     TIP3     H2       HT       0.417000        1.0080           0
     12010 WT1      3807     TIP3     OH2      OT      -0.834000       15.9994           0
     12011 WT1      3807     TIP3     H1       HT       0.417000        1.0080           0
     12012 WT1      3807     TIP3     H2       HT       0.417000        1.0080           0
     12013 WT1      3808     TIP3     OH2      OT      -0.834000       15.9994           0
     12014 WT1      3808     TIP3     H1       HT       0.417000        1.0080           0
     12015 WT1      3808     TIP3     H2       HT       0.417000        1.0080           0
     12016 WT1      3809     TIP3     OH2      OT      -0.834000       15.9994           0
     12017 WT1      3809     TIP3     H1       HT       0.417000        1.0080           0
     12018 WT1      3809     TIP3     H2       HT       0.417000        1.0080           0
     12019 WT1      3810     TIP3     OH2      OT      -0.834000       15.9994           0
     12020 WT1      3810     TIP3     H1       HT       0.417000        1.0080           0
     12021 WT1      3810     TIP3     H2       HT       0.417000        1.0080           0
     12022 WT1      3811     TIP3     OH2      OT      -0.834000       15.9994           0
     12023 WT1      3811     TIP3     H1       HT       0.417000        1.0080           0
     12024 WT1      3811     TIP3     H2       HT       0.417000        1.0080           0
     12025 WT1      3812     TIP3     OH2      OT      -0.834000       15.9994           0
     12026 WT1      3812     TIP3     H1       HT       0.417000        1.0080           0
     12027 WT1      3812     TIP3     H2       HT       0.417000        1.0080           0
     12028 WT1      3813     TIP3     OH2      OT      -0.834000       15.9994           0
     12029 WT1      3813     TIP3     H1       HT       0.417000        1.0080           0
     12030 WT1      3813     TIP3     H2       HT       0.417000        1.0080           0
     12031 WT1      3814     TIP3     OH2      OT      -0.834000       15.9994           0
     12032 WT1      3814     TIP3     H1       HT       0.417000        1.0080           0
     12033 WT1      3814     TIP3     H2       HT       0.417000        1.0080           0
     12034 WT1      3815     TIP3     OH2      OT      -0.834000       15.9994           0
     12035 WT1      3815     TIP3     H1       HT       0.417000        1.0080           0
     12036 WT1      3815     TIP3     H2       HT       0.417000        1.0080           0
     12037 WT1      3816     TIP3     OH2      OT      -0.834000       15.9994           0
     12038 WT1      3816     TIP3     H1       HT       0.417000        1.0080           0
     12039 WT1      3816     TIP3     H2       HT       0.417000        1.0080           0
     12040 WT1      3817     TIP3     OH2      OT      -0.834000       15.9994           0
     12041 WT1      3817     TIP3     H1       HT       0.417000        1.0080           0
     12042 WT1      3817     TIP3     H2       HT       0.417000        1.0080           0
     12043 WT1      3818     TIP3     OH2      OT      -0.834000       15.9994           0
     12044 WT1      3818     TIP3     H1       HT       0.417000        1.0080           0
     12045 WT1      3818     TIP3     H2       HT       0.417000        1.0080           0
     12046 WT1      3819     TIP3     OH2      OT      -0.834000       15.9994           0
     12047 WT1      3819     TIP3     H1       HT       0.417000        1.0080           0
     12048 WT1      3819     TIP3     H2       HT       0.417000        1.0080           0
     12049 WT1      3820     TIP3     OH2      OT      -0.834000       15.9994           0
     12050 WT1      3820     TIP3     H1       HT       0.417000        1.0080           0
     12051 WT1      3820     TIP3     H2       HT       0.417000        1.0080           0
     12052 WT1      3821     TIP3     OH2      OT      -0.834000       15.9994           0
     12053 WT1      3821     TIP3     H1       HT       0.417000        1.0080           0
     12054 WT1      3821     TIP3     H2       HT       0.417000        1.0080           0
     12055 WT1      3822     TIP3     OH2      OT      -0.834000       15.9994           0
     12056 WT1      3822     TIP3     H1       HT       0.417000        1.0080           0
     12057 WT1      3822     TIP3     H2       HT       0.417000        1.0080           0
     12058 WT1      3823     TIP3     OH2      OT      -0.834000       15.9994           0
     12059 WT1      3823     TIP3     H1       HT       0.417000        1.0080           0
     12060 WT1      3823     TIP3     H2       HT       0.417000        1.0080           0
     12061 WT1      3824     TIP3     OH2      OT      -0.834000       15.9994           0
     12062 WT1      3824     TIP3     H1       HT       0.417000        1.0080           0
     12063 WT1      3824     TIP3     H2       HT       0.417000        1.0080           0
     12064 WT1      3825     TIP3     OH2      OT      -0.834000       15.9994           0
     12065 WT1      3825     TIP3     H1       HT       0.417000        1.0080           0
     12066 WT1      3825     TIP3     H2       HT       0.417000        1.0080           0
     12067 WT1      3826     TIP3     OH2      OT      -0.834000       15.9994           0
     12068 WT1      3826     TIP3     H1       HT       0.417000        1.0080           0
     12069 WT1      3826     TIP3     H2       HT       0.417000        1.0080           0
     12070 WT1      3827     TIP3     OH2      OT      -0.834000       15.9994           0
     12071 WT1      3827     TIP3     H1       HT       0.417000        1.0080           0
     12072 WT1      3827     TIP3     H2       HT       0.417000        1.0080           0
     12073 WT1      3828     TIP3     OH2      OT      -0.834000       15.9994           0
     12074 WT1      3828     TIP3     H1       HT       0.417000        1.0080           0
     12075 WT1      3828     TIP3     H2       HT       0.417000        1.0080           0
     12076 WT1      3829     TIP3     OH2      OT      -0.834000       15.9994           0
     12077 WT1      3829     TIP3     H1       HT       0.417000        1.0080           0
     12078 WT1      3829     TIP3     H2       HT       0.417000        1.0080           0
     12079 WT1      3830     TIP3     OH2      OT      -0.834000       15.9994           0
     12080 WT1      3830     TIP3     H1       HT       0.417000        1.0080           0
     12081 WT1      3830     TIP3     H2       HT       0.417000        1.0080           0
     12082 WT1      3831     TIP3     OH2      OT      -0.834000       15.9994           0
     12083 WT1      3831     TIP3     H1       HT       0.417000        1.0080           0
     12084 WT1      3831     TIP3     H2       HT       0.417000        1.0080           0
     12085 WT1      3832     TIP3     OH2      OT      -0.834000       15.9994           0
     12086 WT1      3832     TIP3     H1       HT       0.417000        1.0080           0
     12087 WT1      3832     TIP3     H2       HT       0.417000        1.0080           0
     12088 WT1      3833     TIP3     OH2      OT      -0.834000       15.9994           0
     12089 WT1      3833     TIP3     H1       HT       0.417000        1.0080           0
     12090 WT1      3833     TIP3     H2       HT       0.417000        1.0080           0
     12091 WT1      3834     TIP3     OH2      OT      -0.834000       15.9994           0
     12092 WT1      3834     TIP3     H1       HT       0.417000        1.0080           0
     12093 WT1      3834     TIP3     H2       HT       0.417000        1.0080           0
     12094 WT1      3835     TIP3     OH2      OT      -0.834000       15.9994           0
     12095 WT1      3835     TIP3     H1       HT       0.417000        1.0080           0
     12096 WT1      3835     TIP3     H2       HT       0.417000        1.0080           0
     12097 WT1      3836     TIP3     OH2      OT      -0.834000       15.9994           0
     12098 WT1      3836     TIP3     H1       HT       0.417000        1.0080           0
     12099 WT1      3836     TIP3     H2       HT       0.417000        1.0080           0
     12100 WT1      3837     TIP3     OH2      OT      -0.834000       15.9994           0
     12101 WT1      3837     TIP3     H1       HT       0.417000        1.0080           0
     12102 WT1      3837     TIP3     H2       HT       0.417000        1.0080           0
     12103 WT1      3838     TIP3     OH2      OT      -0.834000       15.9994           0
     12104 WT1      3838     TIP3     H1       HT       0.417000        1.0080           0
     12105 WT1      3838     TIP3     H2       HT       0.417000        1.0080           0
     12106 WT1      3839     TIP3     OH2      OT      -0.834000       15.9994           0
     12107 WT1      3839     TIP3     H1       HT       0.417000        1.0080           0
     12108 WT1      3839     TIP3     H2       HT       0.417000        1.0080           0
     12109 WT1      3840     TIP3     OH2      OT      -0.834000       15.9994           0
     12110 WT1      3840     TIP3     H1       HT       0.417000        1.0080           0
     12111 WT1      3840     TIP3     H2       HT       0.417000        1.0080           0
     12112 WT1      3843     TIP3     OH2      OT      -0.834000       15.9994           0
     12113 WT1      3843     TIP3     H1       HT       0.417000        1.0080           0
     12114 WT1      3843     TIP3     H2       HT       0.417000        1.0080           0
     12115 WT1      3844     TIP3     OH2      OT      -0.834000       15.9994           0
     12116 WT1      3844     TIP3     H1       HT       0.417000        1.0080           0
     12117 WT1      3844     TIP3     H2       HT       0.417000        1.0080           0
     12118 WT1      3845     TIP3     OH2      OT      -0.834000       15.9994           0
     12119 WT1      3845     TIP3     H1       HT       0.417000        1.0080           0
     12120 WT1      3845     TIP3     H2       HT       0.417000        1.0080           0
     12121 WT1      3846     TIP3     OH2      OT      -0.834000       15.9994           0
     12122 WT1      3846     TIP3     H1       HT       0.417000        1.0080           0
     12123 WT1      3846     TIP3     H2       HT       0.417000        1.0080           0
     12124 WT1      3847     TIP3     OH2      OT      -0.834000       15.9994           0
     12125 WT1      3847     TIP3     H1       HT       0.417000        1.0080           0
     12126 WT1      3847     TIP3     H2       HT       0.417000        1.0080           0
     12127 WT1      3848     TIP3     OH2      OT      -0.834000       15.9994           0
     12128 WT1      3848     TIP3     H1       HT       0.417000        1.0080           0
     12129 WT1      3848     TIP3     H2       HT       0.417000        1.0080           0
     12130 WT1      3849     TIP3     OH2      OT      -0.834000       15.9994           0
     12131 WT1      3849     TIP3     H1       HT       0.417000        1.0080           0
     12132 WT1      3849     TIP3     H2       HT       0.417000        1.0080           0
     12133 WT1      3850     TIP3     OH2      OT      -0.834000       15.9994           0
     12134 WT1      3850     TIP3     H1       HT       0.417000        1.0080           0
     12135 WT1      3850     TIP3     H2       HT       0.417000        1.0080           0
     12136 WT1      3851     TIP3     OH2      OT      -0.834000       15.9994           0
     12137 WT1      3851     TIP3     H1       HT       0.417000        1.0080           0
     12138 WT1      3851     TIP3     H2       HT       0.417000        1.0080           0
     12139 WT1      3852     TIP3     OH2      OT      -0.834000       15.9994           0
     12140 WT1      3852     TIP3     H1       HT       0.417000        1.0080           0
     12141 WT1      3852     TIP3     H2       HT       0.417000        1.0080           0
     12142 WT1      3853     TIP3     OH2      OT      -0.834000       15.9994           0
     12143 WT1      3853     TIP3     H1       HT       0.417000        1.0080           0
     12144 WT1      3853     TIP3     H2       HT       0.417000        1.0080           0
     12145 WT1      3854     TIP3     OH2      OT      -0.834000       15.9994           0
     12146 WT1      3854     TIP3     H1       HT       0.417000        1.0080           0
     12147 WT1      3854     TIP3     H2       HT       0.417000        1.0080           0
     12148 WT1      3855     TIP3     OH2      OT      -0.834000       15.9994           0
     12149 WT1      3855     TIP3     H1       HT       0.417000        1.0080           0
     12150 WT1      3855     TIP3     H2       HT       0.417000        1.0080           0
     12151 WT1      3856     TIP3     OH2      OT      -0.834000       15.9994           0
     12152 WT1      3856     TIP3     H1       HT       0.417000        1.0080           0
     12153 WT1      3856     TIP3     H2       HT       0.417000        1.0080           0
     12154 WT1      3857     TIP3     OH2      OT      -0.834000       15.9994           0
     12155 WT1      3857     TIP3     H1       HT       0.417000        1.0080           0
     12156 WT1      3857     TIP3     H2       HT       0.417000        1.0080           0
     12157 WT1      3858     TIP3     OH2      OT      -0.834000       15.9994           0
     12158 WT1      3858     TIP3     H1       HT       0.417000        1.0080           0
     12159 WT1      3858     TIP3     H2       HT       0.417000        1.0080           0
     12160 WT1      3859     TIP3     OH2      OT      -0.834000       15.9994           0
     12161 WT1      3859     TIP3     H1       HT       0.417000        1.0080           0
     12162 WT1      3859     TIP3     H2       HT       0.417000        1.0080           0
     12163 WT1      3860     TIP3     OH2      OT      -0.834000       15.9994           0
     12164 WT1      3860     TIP3     H1       HT       0.417000        1.0080           0
     12165 WT1      3860     TIP3     H2       HT       0.417000        1.0080           0
     12166 WT1      3861     TIP3     OH2      OT      -0.834000       15.9994           0
     12167 WT1      3861     TIP3     H1       HT       0.417000        1.0080           0
     12168 WT1      3861     TIP3     H2       HT       0.417000        1.0080           0
     12169 WT1      3862     TIP3     OH2      OT      -0.834000       15.9994           0
     12170 WT1      3862     TIP3     H1       HT       0.417000        1.0080           0
     12171 WT1      3862     TIP3     H2       HT       0.417000        1.0080           0
     12172 WT1      3863     TIP3     OH2      OT      -0.834000       15.9994           0
     12173 WT1      3863     TIP3     H1       HT       0.417000        1.0080           0
     12174 WT1      3863     TIP3     H2       HT       0.417000        1.0080           0
     12175 WT1      3864     TIP3     OH2      OT      -0.834000       15.9994           0
     12176 WT1      3864     TIP3     H1       HT       0.417000        1.0080           0
     12177 WT1      3864     TIP3     H2       HT       0.417000        1.0080           0
     12178 WT1      3865     TIP3     OH2      OT      -0.834000       15.9994           0
     12179 WT1      3865     TIP3     H1       HT       0.417000        1.0080           0
     12180 WT1      3865     TIP3     H2       HT       0.417000        1.0080           0
     12181 WT1      3866     TIP3     OH2      OT      -0.834000       15.9994           0
     12182 WT1      3866     TIP3     H1       HT       0.417000        1.0080           0
     12183 WT1      3866     TIP3     H2       HT       0.417000        1.0080           0
     12184 WT1      3867     TIP3     OH2      OT      -0.834000       15.9994           0
     12185 WT1      3867     TIP3     H1       HT       0.417000        1.0080           0
     12186 WT1      3867     TIP3     H2       HT       0.417000        1.0080           0
     12187 WT1      3868     TIP3     OH2      OT      -0.834000       15.9994           0
     12188 WT1      3868     TIP3     H1       HT       0.417000        1.0080           0
     12189 WT1      3868     TIP3     H2       HT       0.417000        1.0080           0
     12190 WT1      3869     TIP3     OH2      OT      -0.834000       15.9994           0
     12191 WT1      3869     TIP3     H1       HT       0.417000        1.0080           0
     12192 WT1      3869     TIP3     H2       HT       0.417000        1.0080           0
     12193 WT1      3870     TIP3     OH2      OT      -0.834000       15.9994           0
     12194 WT1      3870     TIP3     H1       HT       0.417000        1.0080           0
     12195 WT1      3870     TIP3     H2       HT       0.417000        1.0080           0
     12196 WT1      3871     TIP3     OH2      OT      -0.834000       15.9994           0
     12197 WT1      3871     TIP3     H1       HT       0.417000        1.0080           0
     12198 WT1      3871     TIP3     H2       HT       0.417000        1.0080           0
     12199 WT1      3872     TIP3     OH2      OT      -0.834000       15.9994           0
     12200 WT1      3872     TIP3     H1       HT       0.417000        1.0080           0
     12201 WT1      3872     TIP3     H2       HT       0.417000        1.0080           0
     12202 WT1      3873     TIP3     OH2      OT      -0.834000       15.9994           0
     12203 WT1      3873     TIP3     H1       HT       0.417000        1.0080           0
     12204 WT1      3873     TIP3     H2       HT       0.417000        1.0080           0
     12205 WT1      3874     TIP3     OH2      OT      -0.834000       15.9994           0
     12206 WT1      3874     TIP3     H1       HT       0.417000        1.0080           0
     12207 WT1      3874     TIP3     H2       HT       0.417000        1.0080           0
     12208 WT1      3875     TIP3     OH2      OT      -0.834000       15.9994           0
     12209 WT1      3875     TIP3     H1       HT       0.417000        1.0080           0
     12210 WT1      3875     TIP3     H2       HT       0.417000        1.0080           0
     12211 WT1      3876     TIP3     OH2      OT      -0.834000       15.9994           0
     12212 WT1      3876     TIP3     H1       HT       0.417000        1.0080           0
     12213 WT1      3876     TIP3     H2       HT       0.417000        1.0080           0
     12214 WT1      3877     TIP3     OH2      OT      -0.834000       15.9994           0
     12215 WT1      3877     TIP3     H1       HT       0.417000        1.0080           0
     12216 WT1      3877     TIP3     H2       HT       0.417000        1.0080           0
     12217 WT1      3878     TIP3     OH2      OT      -0.834000       15.9994           0
     12218 WT1      3878     TIP3     H1       HT       0.417000        1.0080           0
     12219 WT1      3878     TIP3     H2       HT       0.417000        1.0080           0
     12220 WT1      3879     TIP3     OH2      OT      -0.834000       15.9994           0
     12221 WT1      3879     TIP3     H1       HT       0.417000        1.0080           0
     12222 WT1      3879     TIP3     H2       HT       0.417000        1.0080           0
     12223 WT1      3880     TIP3     OH2      OT      -0.834000       15.9994           0
     12224 WT1      3880     TIP3     H1       HT       0.417000        1.0080           0
     12225 WT1      3880     TIP3     H2       HT       0.417000        1.0080           0
     12226 WT1      3881     TIP3     OH2      OT      -0.834000       15.9994           0
     12227 WT1      3881     TIP3     H1       HT       0.417000        1.0080           0
     12228 WT1      3881     TIP3     H2       HT       0.417000        1.0080           0
     12229 WT1      3882     TIP3     OH2      OT      -0.834000       15.9994           0
     12230 WT1      3882     TIP3     H1       HT       0.417000        1.0080           0
     12231 WT1      3882     TIP3     H2       HT       0.417000        1.0080           0
     12232 WT1      3883     TIP3     OH2      OT      -0.834000       15.9994           0
     12233 WT1      3883     TIP3     H1       HT       0.417000        1.0080           0
     12234 WT1      3883     TIP3     H2       HT       0.417000        1.0080           0
     12235 WT1      3884     TIP3     OH2      OT      -0.834000       15.9994           0
     12236 WT1      3884     TIP3     H1       HT       0.417000        1.0080           0
     12237 WT1      3884     TIP3     H2       HT       0.417000        1.0080           0
     12238 WT1      3885     TIP3     OH2      OT      -0.834000       15.9994           0
     12239 WT1      3885     TIP3     H1       HT       0.417000        1.0080           0
     12240 WT1      3885     TIP3     H2       HT       0.417000        1.0080           0
     12241 WT1      3886     TIP3     OH2      OT      -0.834000       15.9994           0
     12242 WT1      3886     TIP3     H1       HT       0.417000        1.0080           0
     12243 WT1      3886     TIP3     H2       HT       0.417000        1.0080           0
     12244 WT1      3887     TIP3     OH2      OT      -0.834000       15.9994           0
     12245 WT1      3887     TIP3     H1       HT       0.417000        1.0080           0
     12246 WT1      3887     TIP3     H2       HT       0.417000        1.0080           0
     12247 WT1      3888     TIP3     OH2      OT      -0.834000       15.9994           0
     12248 WT1      3888     TIP3     H1       HT       0.417000        1.0080           0
     12249 WT1      3888     TIP3     H2       HT       0.417000        1.0080           0
     12250 WT1      3889     TIP3     OH2      OT      -0.834000       15.9994           0
     12251 WT1      3889     TIP3     H1       HT       0.417000        1.0080           0
     12252 WT1      3889     TIP3     H2       HT       0.417000        1.0080           0
     12253 WT1      3890     TIP3     OH2      OT      -0.834000       15.9994           0
     12254 WT1      3890     TIP3     H1       HT       0.417000        1.0080           0
     12255 WT1      3890     TIP3     H2       HT       0.417000        1.0080           0
     12256 WT1      3891     TIP3     OH2      OT      -0.834000       15.9994           0
     12257 WT1      3891     TIP3     H1       HT       0.417000        1.0080           0
     12258 WT1      3891     TIP3     H2       HT       0.417000        1.0080           0
     12259 WT1      3892     TIP3     OH2      OT      -0.834000       15.9994           0
     12260 WT1      3892     TIP3     H1       HT       0.417000        1.0080           0
     12261 WT1      3892     TIP3     H2       HT       0.417000        1.0080           0
     12262 WT1      3893     TIP3     OH2      OT      -0.834000       15.9994           0
     12263 WT1      3893     TIP3     H1       HT       0.417000        1.0080           0
     12264 WT1      3893     TIP3     H2       HT       0.417000        1.0080           0
     12265 WT1      3894     TIP3     OH2      OT      -0.834000       15.9994           0
     12266 WT1      3894     TIP3     H1       HT       0.417000        1.0080           0
     12267 WT1      3894     TIP3     H2       HT       0.417000        1.0080           0
     12268 WT1      3895     TIP3     OH2      OT      -0.834000       15.9994           0
     12269 WT1      3895     TIP3     H1       HT       0.417000        1.0080           0
     12270 WT1      3895     TIP3     H2       HT       0.417000        1.0080           0
     12271 WT1      3896     TIP3     OH2      OT      -0.834000       15.9994           0
     12272 WT1      3896     TIP3     H1       HT       0.417000        1.0080           0
     12273 WT1      3896     TIP3     H2       HT       0.417000        1.0080           0
     12274 WT1      3897     TIP3     OH2      OT      -0.834000       15.9994           0
     12275 WT1      3897     TIP3     H1       HT       0.417000        1.0080           0
     12276 WT1      3897     TIP3     H2       HT       0.417000        1.0080           0
     12277 WT1      3898     TIP3     OH2      OT      -0.834000       15.9994           0
     12278 WT1      3898     TIP3     H1       HT       0.417000        1.0080           0
     12279 WT1      3898     TIP3     H2       HT       0.417000        1.0080           0
     12280 WT1      3899     TIP3     OH2      OT      -0.834000       15.9994           0
     12281 WT1      3899     TIP3     H1       HT       0.417000        1.0080           0
     12282 WT1      3899     TIP3     H2       HT       0.417000        1.0080           0
     12283 WT1      3900     TIP3     OH2      OT      -0.834000       15.9994           0
     12284 WT1      3900     TIP3     H1       HT       0.417000        1.0080           0
     12285 WT1      3900     TIP3     H2       HT       0.417000        1.0080           0
     12286 WT1      3901     TIP3     OH2      OT      -0.834000       15.9994           0
     12287 WT1      3901     TIP3     H1       HT       0.417000        1.0080           0
     12288 WT1      3901     TIP3     H2       HT       0.417000        1.0080           0
     12289 WT1      3902     TIP3     OH2      OT      -0.834000       15.9994           0
     12290 WT1      3902     TIP3     H1       HT       0.417000        1.0080           0
     12291 WT1      3902     TIP3     H2       HT       0.417000        1.0080           0
     12292 WT1      3903     TIP3     OH2      OT      -0.834000       15.9994           0
     12293 WT1      3903     TIP3     H1       HT       0.417000        1.0080           0
     12294 WT1      3903     TIP3     H2       HT       0.417000        1.0080           0
     12295 WT1      3904     TIP3     OH2      OT      -0.834000       15.9994           0
     12296 WT1      3904     TIP3     H1       HT       0.417000        1.0080           0
     12297 WT1      3904     TIP3     H2       HT       0.417000        1.0080           0
     12298 WT1      3905     TIP3     OH2      OT      -0.834000       15.9994           0
     12299 WT1      3905     TIP3     H1       HT       0.417000        1.0080           0
     12300 WT1      3905     TIP3     H2       HT       0.417000        1.0080           0
     12301 WT1      3906     TIP3     OH2      OT      -0.834000       15.9994           0
     12302 WT1      3906     TIP3     H1       HT       0.417000        1.0080           0
     12303 WT1      3906     TIP3     H2       HT       0.417000        1.0080           0
     12304 WT1      3907     TIP3     OH2      OT      -0.834000       15.9994           0
     12305 WT1      3907     TIP3     H1       HT       0.417000        1.0080           0
     12306 WT1      3907     TIP3     H2       HT       0.417000        1.0080           0
     12307 WT1      3908     TIP3     OH2      OT      -0.834000       15.9994           0
     12308 WT1      3908     TIP3     H1       HT       0.417000        1.0080           0
     12309 WT1      3908     TIP3     H2       HT       0.417000        1.0080           0
     12310 WT1      3909     TIP3     OH2      OT      -0.834000       15.9994           0
     12311 WT1      3909     TIP3     H1       HT       0.417000        1.0080           0
     12312 WT1      3909     TIP3     H2       HT       0.417000        1.0080           0
     12313 WT1      3910     TIP3     OH2      OT      -0.834000       15.9994           0
     12314 WT1      3910     TIP3     H1       HT       0.417000        1.0080           0
     12315 WT1      3910     TIP3     H2       HT       0.417000        1.0080           0
     12316 WT1      3911     TIP3     OH2      OT      -0.834000       15.9994           0
     12317 WT1      3911     TIP3     H1       HT       0.417000        1.0080           0
     12318 WT1      3911     TIP3     H2       HT       0.417000        1.0080           0
     12319 WT1      3912     TIP3     OH2      OT      -0.834000       15.9994           0
     12320 WT1      3912     TIP3     H1       HT       0.417000        1.0080           0
     12321 WT1      3912     TIP3     H2       HT       0.417000        1.0080           0
     12322 WT1      3913     TIP3     OH2      OT      -0.834000       15.9994           0
     12323 WT1      3913     TIP3     H1       HT       0.417000        1.0080           0
     12324 WT1      3913     TIP3     H2       HT       0.417000        1.0080           0
     12325 WT1      3914     TIP3     OH2      OT      -0.834000       15.9994           0
     12326 WT1      3914     TIP3     H1       HT       0.417000        1.0080           0
     12327 WT1      3914     TIP3     H2       HT       0.417000        1.0080           0
     12328 WT1      3915     TIP3     OH2      OT      -0.834000       15.9994           0
     12329 WT1      3915     TIP3     H1       HT       0.417000        1.0080           0
     12330 WT1      3915     TIP3     H2       HT       0.417000        1.0080           0
     12331 WT1      3916     TIP3     OH2      OT      -0.834000       15.9994           0
     12332 WT1      3916     TIP3     H1       HT       0.417000        1.0080           0
     12333 WT1      3916     TIP3     H2       HT       0.417000        1.0080           0
     12334 WT1      3917     TIP3     OH2      OT      -0.834000       15.9994           0
     12335 WT1      3917     TIP3     H1       HT       0.417000        1.0080           0
     12336 WT1      3917     TIP3     H2       HT       0.417000        1.0080           0
     12337 WT1      3918     TIP3     OH2      OT      -0.834000       15.9994           0
     12338 WT1      3918     TIP3     H1       HT       0.417000        1.0080           0
     12339 WT1      3918     TIP3     H2       HT       0.417000        1.0080           0
     12340 WT1      3919     TIP3     OH2      OT      -0.834000       15.9994           0
     12341 WT1      3919     TIP3     H1       HT       0.417000        1.0080           0
     12342 WT1      3919     TIP3     H2       HT       0.417000        1.0080           0
     12343 WT1      3920     TIP3     OH2      OT      -0.834000       15.9994           0
     12344 WT1      3920     TIP3     H1       HT       0.417000        1.0080           0
     12345 WT1      3920     TIP3     H2       HT       0.417000        1.0080           0
     12346 WT1      3921     TIP3     OH2      OT      -0.834000       15.9994           0
     12347 WT1      3921     TIP3     H1       HT       0.417000        1.0080           0
     12348 WT1      3921     TIP3     H2       HT       0.417000        1.0080           0
     12349 WT1      3922     TIP3     OH2      OT      -0.834000       15.9994           0
     12350 WT1      3922     TIP3     H1       HT       0.417000        1.0080           0
     12351 WT1      3922     TIP3     H2       HT       0.417000        1.0080           0
     12352 WT1      3923     TIP3     OH2      OT      -0.834000       15.9994           0
     12353 WT1      3923     TIP3     H1       HT       0.417000        1.0080           0
     12354 WT1      3923     TIP3     H2       HT       0.417000        1.0080           0
     12355 WT1      3924     TIP3     OH2      OT      -0.834000       15.9994           0
     12356 WT1      3924     TIP3     H1       HT       0.417000        1.0080           0
     12357 WT1      3924     TIP3     H2       HT       0.417000        1.0080           0
     12358 WT1      3925     TIP3     OH2      OT      -0.834000       15.9994           0
     12359 WT1      3925     TIP3     H1       HT       0.417000        1.0080           0
     12360 WT1      3925     TIP3     H2       HT       0.417000        1.0080           0
     12361 WT1      3926     TIP3     OH2      OT      -0.834000       15.9994           0
     12362 WT1      3926     TIP3     H1       HT       0.417000        1.0080           0
     12363 WT1      3926     TIP3     H2       HT       0.417000        1.0080           0
     12364 WT1      3928     TIP3     OH2      OT      -0.834000       15.9994           0
     12365 WT1      3928     TIP3     H1       HT       0.417000        1.0080           0
     12366 WT1      3928     TIP3     H2       HT       0.417000        1.0080           0
     12367 WT1      3929     TIP3     OH2      OT      -0.834000       15.9994           0
     12368 WT1      3929     TIP3     H1       HT       0.417000        1.0080           0
     12369 WT1      3929     TIP3     H2       HT       0.417000        1.0080           0
     12370 WT1      3930     TIP3     OH2      OT      -0.834000       15.9994           0
     12371 WT1      3930     TIP3     H1       HT       0.417000        1.0080           0
     12372 WT1      3930     TIP3     H2       HT       0.417000        1.0080           0
     12373 WT1      3931     TIP3     OH2      OT      -0.834000       15.9994           0
     12374 WT1      3931     TIP3     H1       HT       0.417000        1.0080           0
     12375 WT1      3931     TIP3     H2       HT       0.417000        1.0080           0
     12376 WT1      3932     TIP3     OH2      OT      -0.834000       15.9994           0
     12377 WT1      3932     TIP3     H1       HT       0.417000        1.0080           0
     12378 WT1      3932     TIP3     H2       HT       0.417000        1.0080           0
     12379 WT1      3933     TIP3     OH2      OT      -0.834000       15.9994           0
     12380 WT1      3933     TIP3     H1       HT       0.417000        1.0080           0
     12381 WT1      3933     TIP3     H2       HT       0.417000        1.0080           0
     12382 WT1      3934     TIP3     OH2      OT      -0.834000       15.9994           0
     12383 WT1      3934     TIP3     H1       HT       0.417000        1.0080           0
     12384 WT1      3934     TIP3     H2       HT       0.417000        1.0080           0
     12385 WT1      3935     TIP3     OH2      OT      -0.834000       15.9994           0
     12386 WT1      3935     TIP3     H1       HT       0.417000        1.0080           0
     12387 WT1      3935     TIP3     H2       HT       0.417000        1.0080           0
     12388 WT1      3936     TIP3     OH2      OT      -0.834000       15.9994           0
     12389 WT1      3936     TIP3     H1       HT       0.417000        1.0080           0
     12390 WT1      3936     TIP3     H2       HT       0.417000        1.0080           0
     12391 WT1      3937     TIP3     OH2      OT      -0.834000       15.9994           0
     12392 WT1      3937     TIP3     H1       HT       0.417000        1.0080           0
     12393 WT1      3937     TIP3     H2       HT       0.417000        1.0080           0
     12394 WT1      3938     TIP3     OH2      OT      -0.834000       15.9994           0
     12395 WT1      3938     TIP3     H1       HT       0.417000        1.0080           0
     12396 WT1      3938     TIP3     H2       HT       0.417000        1.0080           0
     12397 WT1      3939     TIP3     OH2      OT      -0.834000       15.9994           0
     12398 WT1      3939     TIP3     H1       HT       0.417000        1.0080           0
     12399 WT1      3939     TIP3     H2       HT       0.417000        1.0080           0
     12400 WT1      3940     TIP3     OH2      OT      -0.834000       15.9994           0
     12401 WT1      3940     TIP3     H1       HT       0.417000        1.0080           0
     12402 WT1      3940     TIP3     H2       HT       0.417000        1.0080           0
     12403 WT1      3941     TIP3     OH2      OT      -0.834000       15.9994           0
     12404 WT1      3941     TIP3     H1       HT       0.417000        1.0080           0
     12405 WT1      3941     TIP3     H2       HT       0.417000        1.0080           0
     12406 WT1      3942     TIP3     OH2      OT      -0.834000       15.9994           0
     12407 WT1      3942     TIP3     H1       HT       0.417000        1.0080           0
     12408 WT1      3942     TIP3     H2       HT       0.417000        1.0080           0
     12409 WT1      3943     TIP3     OH2      OT      -0.834000       15.9994           0
     12410 WT1      3943     TIP3     H1       HT       0.417000        1.0080           0
     12411 WT1      3943     TIP3     H2       HT       0.417000        1.0080           0
     12412 WT1      3944     TIP3     OH2      OT      -0.834000       15.9994           0
     12413 WT1      3944     TIP3     H1       HT       0.417000        1.0080           0
     12414 WT1      3944     TIP3     H2       HT       0.417000        1.0080           0
     12415 WT1      3945     TIP3     OH2      OT      -0.834000       15.9994           0
     12416 WT1      3945     TIP3     H1       HT       0.417000        1.0080           0
     12417 WT1      3945     TIP3     H2       HT       0.417000        1.0080           0
     12418 WT1      3946     TIP3     OH2      OT      -0.834000       15.9994           0
     12419 WT1      3946     TIP3     H1       HT       0.417000        1.0080           0
     12420 WT1      3946     TIP3     H2       HT       0.417000        1.0080           0
     12421 WT1      3947     TIP3     OH2      OT      -0.834000       15.9994           0
     12422 WT1      3947     TIP3     H1       HT       0.417000        1.0080           0
     12423 WT1      3947     TIP3     H2       HT       0.417000        1.0080           0
     12424 WT1      3948     TIP3     OH2      OT      -0.834000       15.9994           0
     12425 WT1      3948     TIP3     H1       HT       0.417000        1.0080           0
     12426 WT1      3948     TIP3     H2       HT       0.417000        1.0080           0
     12427 WT1      3949     TIP3     OH2      OT      -0.834000       15.9994           0
     12428 WT1      3949     TIP3     H1       HT       0.417000        1.0080           0
     12429 WT1      3949     TIP3     H2       HT       0.417000        1.0080           0
     12430 WT1      3950     TIP3     OH2      OT      -0.834000       15.9994           0
     12431 WT1      3950     TIP3     H1       HT       0.417000        1.0080           0
     12432 WT1      3950     TIP3     H2       HT       0.417000        1.0080           0
     12433 WT1      3951     TIP3     OH2      OT      -0.834000       15.9994           0
     12434 WT1      3951     TIP3     H1       HT       0.417000        1.0080           0
     12435 WT1      3951     TIP3     H2       HT       0.417000        1.0080           0
     12436 WT1      3952     TIP3     OH2      OT      -0.834000       15.9994           0
     12437 WT1      3952     TIP3     H1       HT       0.417000        1.0080           0
     12438 WT1      3952     TIP3     H2       HT       0.417000        1.0080           0
     12439 WT1      3953     TIP3     OH2      OT      -0.834000       15.9994           0
     12440 WT1      3953     TIP3     H1       HT       0.417000        1.0080           0
     12441 WT1      3953     TIP3     H2       HT       0.417000        1.0080           0
     12442 WT1      3954     TIP3     OH2      OT      -0.834000       15.9994           0
     12443 WT1      3954     TIP3     H1       HT       0.417000        1.0080           0
     12444 WT1      3954     TIP3     H2       HT       0.417000        1.0080           0
     12445 WT1      3955     TIP3     OH2      OT      -0.834000       15.9994           0
     12446 WT1      3955     TIP3     H1       HT       0.417000        1.0080           0
     12447 WT1      3955     TIP3     H2       HT       0.417000        1.0080           0
     12448 WT1      3956     TIP3     OH2      OT      -0.834000       15.9994           0
     12449 WT1      3956     TIP3     H1       HT       0.417000        1.0080           0
     12450 WT1      3956     TIP3     H2       HT       0.417000        1.0080           0
     12451 WT1      3957     TIP3     OH2      OT      -0.834000       15.9994           0
     12452 WT1      3957     TIP3     H1       HT       0.417000        1.0080           0
     12453 WT1      3957     TIP3     H2       HT       0.417000        1.0080           0
     12454 WT1      3958     TIP3     OH2      OT      -0.834000       15.9994           0
     12455 WT1      3958     TIP3     H1       HT       0.417000        1.0080           0
     12456 WT1      3958     TIP3     H2       HT       0.417000        1.0080           0
     12457 WT1      3959     TIP3     OH2      OT      -0.834000       15.9994           0
     12458 WT1      3959     TIP3     H1       HT       0.417000        1.0080           0
     12459 WT1      3959     TIP3     H2       HT       0.417000        1.0080           0
     12460 WT1      3960     TIP3     OH2      OT      -0.834000       15.9994           0
     12461 WT1      3960     TIP3     H1       HT       0.417000        1.0080           0
     12462 WT1      3960     TIP3     H2       HT       0.417000        1.0080           0
     12463 WT1      3961     TIP3     OH2      OT      -0.834000       15.9994           0
     12464 WT1      3961     TIP3     H1       HT       0.417000        1.0080           0
     12465 WT1      3961     TIP3     H2       HT       0.417000        1.0080           0
     12466 WT1      3962     TIP3     OH2      OT      -0.834000       15.9994           0
     12467 WT1      3962     TIP3     H1       HT       0.417000        1.0080           0
     12468 WT1      3962     TIP3     H2       HT       0.417000        1.0080           0
     12469 WT1      3963     TIP3     OH2      OT      -0.834000       15.9994           0
     12470 WT1      3963     TIP3     H1       HT       0.417000        1.0080           0
     12471 WT1      3963     TIP3     H2       HT       0.417000        1.0080           0
     12472 WT1      3964     TIP3     OH2      OT      -0.834000       15.9994           0
     12473 WT1      3964     TIP3     H1       HT       0.417000        1.0080           0
     12474 WT1      3964     TIP3     H2       HT       0.417000        1.0080           0
     12475 WT1      3965     TIP3     OH2      OT      -0.834000       15.9994           0
     12476 WT1      3965     TIP3     H1       HT       0.417000        1.0080           0
     12477 WT1      3965     TIP3     H2       HT       0.417000        1.0080           0
     12478 WT1      3966     TIP3     OH2      OT      -0.834000       15.9994           0
     12479 WT1      3966     TIP3     H1       HT       0.417000        1.0080           0
     12480 WT1      3966     TIP3     H2       HT       0.417000        1.0080           0
     12481 WT1      3967     TIP3     OH2      OT      -0.834000       15.9994           0
     12482 WT1      3967     TIP3     H1       HT       0.417000        1.0080           0
     12483 WT1      3967     TIP3     H2       HT       0.417000        1.0080           0
     12484 WT1      3968     TIP3     OH2      OT      -0.834000       15.9994           0
     12485 WT1      3968     TIP3     H1       HT       0.417000        1.0080           0
     12486 WT1      3968     TIP3     H2       HT       0.417000        1.0080           0
     12487 WT1      3969     TIP3     OH2      OT      -0.834000       15.9994           0
     12488 WT1      3969     TIP3     H1       HT       0.417000        1.0080           0
     12489 WT1      3969     TIP3     H2       HT       0.417000        1.0080           0
     12490 WT1      3970     TIP3     OH2      OT      -0.834000       15.9994           0
     12491 WT1      3970     TIP3     H1       HT       0.417000        1.0080           0
     12492 WT1      3970     TIP3     H2       HT       0.417000        1.0080           0
     12493 WT1      3971     TIP3     OH2      OT      -0.834000       15.9994           0
     12494 WT1      3971     TIP3     H1       HT       0.417000        1.0080           0
     12495 WT1      3971     TIP3     H2       HT       0.417000        1.0080           0
     12496 WT1      3972     TIP3     OH2      OT      -0.834000       15.9994           0
     12497 WT1      3972     TIP3     H1       HT       0.417000        1.0080           0
     12498 WT1      3972     TIP3     H2       HT       0.417000        1.0080           0
     12499 WT1      3973     TIP3     OH2      OT      -0.834000       15.9994           0
     12500 WT1      3973     TIP3     H1       HT       0.417000        1.0080           0
     12501 WT1      3973     TIP3     H2       HT       0.417000        1.0080           0
     12502 WT1      3974     TIP3     OH2      OT      -0.834000       15.9994           0
     12503 WT1      3974     TIP3     H1       HT       0.417000        1.0080           0
     12504 WT1      3974     TIP3     H2       HT       0.417000        1.0080           0
     12505 WT1      3975     TIP3     OH2      OT      -0.834000       15.9994           0
     12506 WT1      3975     TIP3     H1       HT       0.417000        1.0080           0
     12507 WT1      3975     TIP3     H2       HT       0.417000        1.0080           0
     12508 WT1      3976     TIP3     OH2      OT      -0.834000       15.9994           0
     12509 WT1      3976     TIP3     H1       HT       0.417000        1.0080           0
     12510 WT1      3976     TIP3     H2       HT       0.417000        1.0080           0
     12511 WT1      3977     TIP3     OH2      OT      -0.834000       15.9994           0
     12512 WT1      3977     TIP3     H1       HT       0.417000        1.0080           0
     12513 WT1      3977     TIP3     H2       HT       0.417000        1.0080           0
     12514 WT1      3978     TIP3     OH2      OT      -0.834000       15.9994           0
     12515 WT1      3978     TIP3     H1       HT       0.417000        1.0080           0
     12516 WT1      3978     TIP3     H2       HT       0.417000        1.0080           0
     12517 WT1      3979     TIP3     OH2      OT      -0.834000       15.9994           0
     12518 WT1      3979     TIP3     H1       HT       0.417000        1.0080           0
     12519 WT1      3979     TIP3     H2       HT       0.417000        1.0080           0
     12520 WT1      3980     TIP3     OH2      OT      -0.834000       15.9994           0
     12521 WT1      3980     TIP3     H1       HT       0.417000        1.0080           0
     12522 WT1      3980     TIP3     H2       HT       0.417000        1.0080           0
     12523 WT1      3981     TIP3     OH2      OT      -0.834000       15.9994           0
     12524 WT1      3981     TIP3     H1       HT       0.417000        1.0080           0
     12525 WT1      3981     TIP3     H2       HT       0.417000        1.0080           0
     12526 WT1      3982     TIP3     OH2      OT      -0.834000       15.9994           0
     12527 WT1      3982     TIP3     H1       HT       0.417000        1.0080           0
     12528 WT1      3982     TIP3     H2       HT       0.417000        1.0080           0
     12529 WT1      3983     TIP3     OH2      OT      -0.834000       15.9994           0
     12530 WT1      3983     TIP3     H1       HT       0.417000        1.0080           0
     12531 WT1      3983     TIP3     H2       HT       0.417000        1.0080           0
     12532 WT1      3984     TIP3     OH2      OT      -0.834000       15.9994           0
     12533 WT1      3984     TIP3     H1       HT       0.417000        1.0080           0
     12534 WT1      3984     TIP3     H2       HT       0.417000        1.0080           0
     12535 WT1      3985     TIP3     OH2      OT      -0.834000       15.9994           0
     12536 WT1      3985     TIP3     H1       HT       0.417000        1.0080           0
     12537 WT1      3985     TIP3     H2       HT       0.417000        1.0080           0
     12538 WT1      3986     TIP3     OH2      OT      -0.834000       15.9994           0
     12539 WT1      3986     TIP3     H1       HT       0.417000        1.0080           0
     12540 WT1      3986     TIP3     H2       HT       0.417000        1.0080           0
     12541 WT1      3987     TIP3     OH2      OT      -0.834000       15.9994           0
     12542 WT1      3987     TIP3     H1       HT       0.417000        1.0080           0
     12543 WT1      3987     TIP3     H2       HT       0.417000        1.0080           0
     12544 WT1      3988     TIP3     OH2      OT      -0.834000       15.9994           0
     12545 WT1      3988     TIP3     H1       HT       0.417000        1.0080           0
     12546 WT1      3988     TIP3     H2       HT       0.417000        1.0080           0
     12547 WT1      3989     TIP3     OH2      OT      -0.834000       15.9994           0
     12548 WT1      3989     TIP3     H1       HT       0.417000        1.0080           0
     12549 WT1      3989     TIP3     H2       HT       0.417000        1.0080           0
     12550 WT1      3990     TIP3     OH2      OT      -0.834000       15.9994           0
     12551 WT1      3990     TIP3     H1       HT       0.417000        1.0080           0
     12552 WT1      3990     TIP3     H2       HT       0.417000        1.0080           0
     12553 WT1      3991     TIP3     OH2      OT      -0.834000       15.9994           0
     12554 WT1      3991     TIP3     H1       HT       0.417000        1.0080           0
     12555 WT1      3991     TIP3     H2       HT       0.417000        1.0080           0
     12556 WT1      3992     TIP3     OH2      OT      -0.834000       15.9994           0
     12557 WT1      3992     TIP3     H1       HT       0.417000        1.0080           0
     12558 WT1      3992     TIP3     H2       HT       0.417000        1.0080           0
     12559 WT1      3993     TIP3     OH2      OT      -0.834000       15.9994           0
     12560 WT1      3993     TIP3     H1       HT       0.417000        1.0080           0
     12561 WT1      3993     TIP3     H2       HT       0.417000        1.0080           0
     12562 WT1      3995     TIP3     OH2      OT      -0.834000       15.9994           0
     12563 WT1      3995     TIP3     H1       HT       0.417000        1.0080           0
     12564 WT1      3995     TIP3     H2       HT       0.417000        1.0080           0
     12565 WT1      3996     TIP3     OH2      OT      -0.834000       15.9994           0
     12566 WT1      3996     TIP3     H1       HT       0.417000        1.0080           0
     12567 WT1      3996     TIP3     H2       HT       0.417000        1.0080           0
     12568 WT1      3997     TIP3     OH2      OT      -0.834000       15.9994           0
     12569 WT1      3997     TIP3     H1       HT       0.417000        1.0080           0
     12570 WT1      3997     TIP3     H2       HT       0.417000        1.0080           0
     12571 WT1      3998     TIP3     OH2      OT      -0.834000       15.9994           0
     12572 WT1      3998     TIP3     H1       HT       0.417000        1.0080           0
     12573 WT1      3998     TIP3     H2       HT       0.417000        1.0080           0
     12574 WT1      3999     TIP3     OH2      OT      -0.834000       15.9994           0
     12575 WT1      3999     TIP3     H1       HT       0.417000        1.0080           0
     12576 WT1      3999     TIP3     H2       HT       0.417000        1.0080           0
     12577 WT1      4000     TIP3     OH2      OT      -0.834000       15.9994           0
     12578 WT1      4000     TIP3     H1       HT       0.417000        1.0080           0
     12579 WT1      4000     TIP3     H2       HT       0.417000        1.0080           0
     12580 WT1      4001     TIP3     OH2      OT      -0.834000       15.9994           0
     12581 WT1      4001     TIP3     H1       HT       0.417000        1.0080           0
     12582 WT1      4001     TIP3     H2       HT       0.417000        1.0080           0
     12583 WT1      4002     TIP3     OH2      OT      -0.834000       15.9994           0
     12584 WT1      4002     TIP3     H1       HT       0.417000        1.0080           0
     12585 WT1      4002     TIP3     H2       HT       0.417000        1.0080           0
     12586 WT1      4004     TIP3     OH2      OT      -0.834000       15.9994           0
     12587 WT1      4004     TIP3     H1       HT       0.417000        1.0080           0
     12588 WT1      4004     TIP3     H2       HT       0.417000        1.0080           0
     12589 WT1      4005     TIP3     OH2      OT      -0.834000       15.9994           0
     12590 WT1      4005     TIP3     H1       HT       0.417000        1.0080           0
     12591 WT1      4005     TIP3     H2       HT       0.417000        1.0080           0
     12592 WT1      4006     TIP3     OH2      OT      -0.834000       15.9994           0
     12593 WT1      4006     TIP3     H1       HT       0.417000        1.0080           0
     12594 WT1      4006     TIP3     H2       HT       0.417000        1.0080           0
     12595 WT1      4007     TIP3     OH2      OT      -0.834000       15.9994           0
     12596 WT1      4007     TIP3     H1       HT       0.417000        1.0080           0
     12597 WT1      4007     TIP3     H2       HT       0.417000        1.0080           0
     12598 WT1      4008     TIP3     OH2      OT      -0.834000       15.9994           0
     12599 WT1      4008     TIP3     H1       HT       0.417000        1.0080           0
     12600 WT1      4008     TIP3     H2       HT       0.417000        1.0080           0
     12601 WT1      4009     TIP3     OH2      OT      -0.834000       15.9994           0
     12602 WT1      4009     TIP3     H1       HT       0.417000        1.0080           0
     12603 WT1      4009     TIP3     H2       HT       0.417000        1.0080           0
     12604 WT1      4010     TIP3     OH2      OT      -0.834000       15.9994           0
     12605 WT1      4010     TIP3     H1       HT       0.417000        1.0080           0
     12606 WT1      4010     TIP3     H2       HT       0.417000        1.0080           0
     12607 WT1      4011     TIP3     OH2      OT      -0.834000       15.9994           0
     12608 WT1      4011     TIP3     H1       HT       0.417000        1.0080           0
     12609 WT1      4011     TIP3     H2       HT       0.417000        1.0080           0
     12610 WT1      4012     TIP3     OH2      OT      -0.834000       15.9994           0
     12611 WT1      4012     TIP3     H1       HT       0.417000        1.0080           0
     12612 WT1      4012     TIP3     H2       HT       0.417000        1.0080           0
     12613 WT1      4013     TIP3     OH2      OT      -0.834000       15.9994           0
     12614 WT1      4013     TIP3     H1       HT       0.417000        1.0080           0
     12615 WT1      4013     TIP3     H2       HT       0.417000        1.0080           0
     12616 WT1      4014     TIP3     OH2      OT      -0.834000       15.9994           0
     12617 WT1      4014     TIP3     H1       HT       0.417000        1.0080           0
     12618 WT1      4014     TIP3     H2       HT       0.417000        1.0080           0
     12619 WT1      4015     TIP3     OH2      OT      -0.834000       15.9994           0
     12620 WT1      4015     TIP3     H1       HT       0.417000        1.0080           0
     12621 WT1      4015     TIP3     H2       HT       0.417000        1.0080           0
     12622 WT1      4016     TIP3     OH2      OT      -0.834000       15.9994           0
     12623 WT1      4016     TIP3     H1       HT       0.417000        1.0080           0
     12624 WT1      4016     TIP3     H2       HT       0.417000        1.0080           0
     12625 WT1      4017     TIP3     OH2      OT      -0.834000       15.9994           0
     12626 WT1      4017     TIP3     H1       HT       0.417000        1.0080           0
     12627 WT1      4017     TIP3     H2       HT       0.417000        1.0080           0
     12628 WT1      4018     TIP3     OH2      OT      -0.834000       15.9994           0
     12629 WT1      4018     TIP3     H1       HT       0.417000        1.0080           0
     12630 WT1      4018     TIP3     H2       HT       0.417000        1.0080           0
     12631 WT1      4019     TIP3     OH2      OT      -0.834000       15.9994           0
     12632 WT1      4019     TIP3     H1       HT       0.417000        1.0080           0
     12633 WT1      4019     TIP3     H2       HT       0.417000        1.0080           0
     12634 WT1      4020     TIP3     OH2      OT      -0.834000       15.9994           0
     12635 WT1      4020     TIP3     H1       HT       0.417000        1.0080           0
     12636 WT1      4020     TIP3     H2       HT       0.417000        1.0080           0
     12637 WT1      4021     TIP3     OH2      OT      -0.834000       15.9994           0
     12638 WT1      4021     TIP3     H1       HT       0.417000        1.0080           0
     12639 WT1      4021     TIP3     H2       HT       0.417000        1.0080           0
     12640 WT1      4022     TIP3     OH2      OT      -0.834000       15.9994           0
     12641 WT1      4022     TIP3     H1       HT       0.417000        1.0080           0
     12642 WT1      4022     TIP3     H2       HT       0.417000        1.0080           0
     12643 WT1      4023     TIP3     OH2      OT      -0.834000       15.9994           0
     12644 WT1      4023     TIP3     H1       HT       0.417000        1.0080           0
     12645 WT1      4023     TIP3     H2       HT       0.417000        1.0080           0
     12646 WT1      4024     TIP3     OH2      OT      -0.834000       15.9994           0
     12647 WT1      4024     TIP3     H1       HT       0.417000        1.0080           0
     12648 WT1      4024     TIP3     H2       HT       0.417000        1.0080           0
     12649 WT1      4025     TIP3     OH2      OT      -0.834000       15.9994           0
     12650 WT1      4025     TIP3     H1       HT       0.417000        1.0080           0
     12651 WT1      4025     TIP3     H2       HT       0.417000        1.0080           0
     12652 WT1      4026     TIP3     OH2      OT      -0.834000       15.9994           0
     12653 WT1      4026     TIP3     H1       HT       0.417000        1.0080           0
     12654 WT1      4026     TIP3     H2       HT       0.417000        1.0080           0
     12655 WT1      4027     TIP3     OH2      OT      -0.834000       15.9994           0
     12656 WT1      4027     TIP3     H1       HT       0.417000        1.0080           0
     12657 WT1      4027     TIP3     H2       HT       0.417000        1.0080           0
     12658 WT1      4028     TIP3     OH2      OT      -0.834000       15.9994           0
     12659 WT1      4028     TIP3     H1       HT       0.417000        1.0080           0
     12660 WT1      4028     TIP3     H2       HT       0.417000        1.0080           0
     12661 WT1      4029     TIP3     OH2      OT      -0.834000       15.9994           0
     12662 WT1      4029     TIP3     H1       HT       0.417000        1.0080           0
     12663 WT1      4029     TIP3     H2       HT       0.417000        1.0080           0
     12664 WT1      4030     TIP3     OH2      OT      -0.834000       15.9994           0
     12665 WT1      4030     TIP3     H1       HT       0.417000        1.0080           0
     12666 WT1      4030     TIP3     H2       HT       0.417000        1.0080           0
     12667 WT1      4031     TIP3     OH2      OT      -0.834000       15.9994           0
     12668 WT1      4031     TIP3     H1       HT       0.417000        1.0080           0
     12669 WT1      4031     TIP3     H2       HT       0.417000        1.0080           0
     12670 WT1      4032     TIP3     OH2      OT      -0.834000       15.9994           0
     12671 WT1      4032     TIP3     H1       HT       0.417000        1.0080           0
     12672 WT1      4032     TIP3     H2       HT       0.417000        1.0080           0
     12673 WT1      4033     TIP3     OH2      OT      -0.834000       15.9994           0
     12674 WT1      4033     TIP3     H1       HT       0.417000        1.0080           0
     12675 WT1      4033     TIP3     H2       HT       0.417000        1.0080           0
     12676 WT1      4034     TIP3     OH2      OT      -0.834000       15.9994           0
     12677 WT1      4034     TIP3     H1       HT       0.417000        1.0080           0
     12678 WT1      4034     TIP3     H2       HT       0.417000        1.0080           0
     12679 WT1      4035     TIP3     OH2      OT      -0.834000       15.9994           0
     12680 WT1      4035     TIP3     H1       HT       0.417000        1.0080           0
     12681 WT1      4035     TIP3     H2       HT       0.417000        1.0080           0
     12682 WT1      4036     TIP3     OH2      OT      -0.834000       15.9994           0
     12683 WT1      4036     TIP3     H1       HT       0.417000        1.0080           0
     12684 WT1      4036     TIP3     H2       HT       0.417000        1.0080           0
     12685 WT1      4037     TIP3     OH2      OT      -0.834000       15.9994           0
     12686 WT1      4037     TIP3     H1       HT       0.417000        1.0080           0
     12687 WT1      4037     TIP3     H2       HT       0.417000        1.0080           0
     12688 WT1      4038     TIP3     OH2      OT      -0.834000       15.9994           0
     12689 WT1      4038     TIP3     H1       HT       0.417000        1.0080           0
     12690 WT1      4038     TIP3     H2       HT       0.417000        1.0080           0
     12691 WT1      4039     TIP3     OH2      OT      -0.834000       15.9994           0
     12692 WT1      4039     TIP3     H1       HT       0.417000        1.0080           0
     12693 WT1      4039     TIP3     H2       HT       0.417000        1.0080           0
     12694 WT1      4040     TIP3     OH2      OT      -0.834000       15.9994           0
     12695 WT1      4040     TIP3     H1       HT       0.417000        1.0080           0
     12696 WT1      4040     TIP3     H2       HT       0.417000        1.0080           0
     12697 WT1      4041     TIP3     OH2      OT      -0.834000       15.9994           0
     12698 WT1      4041     TIP3     H1       HT       0.417000        1.0080           0
     12699 WT1      4041     TIP3     H2       HT       0.417000        1.0080           0
     12700 WT1      4042     TIP3     OH2      OT      -0.834000       15.9994           0
     12701 WT1      4042     TIP3     H1       HT       0.417000        1.0080           0
     12702 WT1      4042     TIP3     H2       HT       0.417000        1.0080           0
     12703 WT1      4043     TIP3     OH2      OT      -0.834000       15.9994           0
     12704 WT1      4043     TIP3     H1       HT       0.417000        1.0080           0
     12705 WT1      4043     TIP3     H2       HT       0.417000        1.0080           0
     12706 WT1      4044     TIP3     OH2      OT      -0.834000       15.9994           0
     12707 WT1      4044     TIP3     H1       HT       0.417000        1.0080           0
     12708 WT1      4044     TIP3     H2       HT       0.417000        1.0080           0
     12709 WT1      4045     TIP3     OH2      OT      -0.834000       15.9994           0
     12710 WT1      4045     TIP3     H1       HT       0.417000        1.0080           0
     12711 WT1      4045     TIP3     H2       HT       0.417000        1.0080           0
     12712 WT1      4046     TIP3     OH2      OT      -0.834000       15.9994           0
     12713 WT1      4046     TIP3     H1       HT       0.417000        1.0080           0
     12714 WT1      4046     TIP3     H2       HT       0.417000        1.0080           0
     12715 WT1      4047     TIP3     OH2      OT      -0.834000       15.9994           0
     12716 WT1      4047     TIP3     H1       HT       0.417000        1.0080           0
     12717 WT1      4047     TIP3     H2       HT       0.417000        1.0080           0
     12718 WT1      4048     TIP3     OH2      OT      -0.834000       15.9994           0
     12719 WT1      4048     TIP3     H1       HT       0.417000        1.0080           0
     12720 WT1      4048     TIP3     H2       HT       0.417000        1.0080           0
     12721 WT1      4049     TIP3     OH2      OT      -0.834000       15.9994           0
     12722 WT1      4049     TIP3     H1       HT       0.417000        1.0080           0
     12723 WT1      4049     TIP3     H2       HT       0.417000        1.0080           0
     12724 WT1      4050     TIP3     OH2      OT      -0.834000       15.9994           0
     12725 WT1      4050     TIP3     H1       HT       0.417000        1.0080           0
     12726 WT1      4050     TIP3     H2       HT       0.417000        1.0080           0
     12727 WT1      4051     TIP3     OH2      OT      -0.834000       15.9994           0
     12728 WT1      4051     TIP3     H1       HT       0.417000        1.0080           0
     12729 WT1      4051     TIP3     H2       HT       0.417000        1.0080           0
     12730 WT1      4052     TIP3     OH2      OT      -0.834000       15.9994           0
     12731 WT1      4052     TIP3     H1       HT       0.417000        1.0080           0
     12732 WT1      4052     TIP3     H2       HT       0.417000        1.0080           0
     12733 WT1      4053     TIP3     OH2      OT      -0.834000       15.9994           0
     12734 WT1      4053     TIP3     H1       HT       0.417000        1.0080           0
     12735 WT1      4053     TIP3     H2       HT       0.417000        1.0080           0
     12736 WT1      4054     TIP3     OH2      OT      -0.834000       15.9994           0
     12737 WT1      4054     TIP3     H1       HT       0.417000        1.0080           0
     12738 WT1      4054     TIP3     H2       HT       0.417000        1.0080           0
     12739 WT1      4055     TIP3     OH2      OT      -0.834000       15.9994           0
     12740 WT1      4055     TIP3     H1       HT       0.417000        1.0080           0
     12741 WT1      4055     TIP3     H2       HT       0.417000        1.0080           0
     12742 WT1      4056     TIP3     OH2      OT      -0.834000       15.9994           0
     12743 WT1      4056     TIP3     H1       HT       0.417000        1.0080           0
     12744 WT1      4056     TIP3     H2       HT       0.417000        1.0080           0
     12745 WT1      4057     TIP3     OH2      OT      -0.834000       15.9994           0
     12746 WT1      4057     TIP3     H1       HT       0.417000        1.0080           0
     12747 WT1      4057     TIP3     H2       HT       0.417000        1.0080           0
     12748 WT1      4059     TIP3     OH2      OT      -0.834000       15.9994           0
     12749 WT1      4059     TIP3     H1       HT       0.417000        1.0080           0
     12750 WT1      4059     TIP3     H2       HT       0.417000        1.0080           0
     12751 WT1      4060     TIP3     OH2      OT      -0.834000       15.9994           0
     12752 WT1      4060     TIP3     H1       HT       0.417000        1.0080           0
     12753 WT1      4060     TIP3     H2       HT       0.417000        1.0080           0
     12754 WT1      4061     TIP3     OH2      OT      -0.834000       15.9994           0
     12755 WT1      4061     TIP3     H1       HT       0.417000        1.0080           0
     12756 WT1      4061     TIP3     H2       HT       0.417000        1.0080           0
     12757 WT1      4062     TIP3     OH2      OT      -0.834000       15.9994           0
     12758 WT1      4062     TIP3     H1       HT       0.417000        1.0080           0
     12759 WT1      4062     TIP3     H2       HT       0.417000        1.0080           0
     12760 WT1      4063     TIP3     OH2      OT      -0.834000       15.9994           0
     12761 WT1      4063     TIP3     H1       HT       0.417000        1.0080           0
     12762 WT1      4063     TIP3     H2       HT       0.417000        1.0080           0
     12763 WT1      4064     TIP3     OH2      OT      -0.834000       15.9994           0
     12764 WT1      4064     TIP3     H1       HT       0.417000        1.0080           0
     12765 WT1      4064     TIP3     H2       HT       0.417000        1.0080           0
     12766 WT1      4065     TIP3     OH2      OT      -0.834000       15.9994           0
     12767 WT1      4065     TIP3     H1       HT       0.417000        1.0080           0
     12768 WT1      4065     TIP3     H2       HT       0.417000        1.0080           0
     12769 WT1      4066     TIP3     OH2      OT      -0.834000       15.9994           0
     12770 WT1      4066     TIP3     H1       HT       0.417000        1.0080           0
     12771 WT1      4066     TIP3     H2       HT       0.417000        1.0080           0
     12772 WT1      4067     TIP3     OH2      OT      -0.834000       15.9994           0
     12773 WT1      4067     TIP3     H1       HT       0.417000        1.0080           0
     12774 WT1      4067     TIP3     H2       HT       0.417000        1.0080           0
     12775 WT1      4068     TIP3     OH2      OT      -0.834000       15.9994           0
     12776 WT1      4068     TIP3     H1       HT       0.417000        1.0080           0
     12777 WT1      4068     TIP3     H2       HT       0.417000        1.0080           0
     12778 WT1      4069     TIP3     OH2      OT      -0.834000       15.9994           0
     12779 WT1      4069     TIP3     H1       HT       0.417000        1.0080           0
     12780 WT1      4069     TIP3     H2       HT       0.417000        1.0080           0
     12781 WT1      4070     TIP3     OH2      OT      -0.834000       15.9994           0
     12782 WT1      4070     TIP3     H1       HT       0.417000        1.0080           0
     12783 WT1      4070     TIP3     H2       HT       0.417000        1.0080           0
     12784 WT1      4071     TIP3     OH2      OT      -0.834000       15.9994           0
     12785 WT1      4071     TIP3     H1       HT       0.417000        1.0080           0
     12786 WT1      4071     TIP3     H2       HT       0.417000        1.0080           0
     12787 WT1      4072     TIP3     OH2      OT      -0.834000       15.9994           0
     12788 WT1      4072     TIP3     H1       HT       0.417000        1.0080           0
     12789 WT1      4072     TIP3     H2       HT       0.417000        1.0080           0
     12790 WT1      4073     TIP3     OH2      OT      -0.834000       15.9994           0
     12791 WT1      4073     TIP3     H1       HT       0.417000        1.0080           0
     12792 WT1      4073     TIP3     H2       HT       0.417000        1.0080           0
     12793 WT1      4074     TIP3     OH2      OT      -0.834000       15.9994           0
     12794 WT1      4074     TIP3     H1       HT       0.417000        1.0080           0
     12795 WT1      4074     TIP3     H2       HT       0.417000        1.0080           0
     12796 WT1      4075     TIP3     OH2      OT      -0.834000       15.9994           0
     12797 WT1      4075     TIP3     H1       HT       0.417000        1.0080           0
     12798 WT1      4075     TIP3     H2       HT       0.417000        1.0080           0
     12799 WT1      4076     TIP3     OH2      OT      -0.834000       15.9994           0
     12800 WT1      4076     TIP3     H1       HT       0.417000        1.0080           0
     12801 WT1      4076     TIP3     H2       HT       0.417000        1.0080           0
     12802 WT1      4077     TIP3     OH2      OT      -0.834000       15.9994           0
     12803 WT1      4077     TIP3     H1       HT       0.417000        1.0080           0
     12804 WT1      4077     TIP3     H2       HT       0.417000        1.0080           0
     12805 WT1      4078     TIP3     OH2      OT      -0.834000       15.9994           0
     12806 WT1      4078     TIP3     H1       HT       0.417000        1.0080           0
     12807 WT1      4078     TIP3     H2       HT       0.417000        1.0080           0
     12808 WT1      4079     TIP3     OH2      OT      -0.834000       15.9994           0
     12809 WT1      4079     TIP3     H1       HT       0.417000        1.0080           0
     12810 WT1      4079     TIP3     H2       HT       0.417000        1.0080           0
     12811 WT1      4080     TIP3     OH2      OT      -0.834000       15.9994           0
     12812 WT1      4080     TIP3     H1       HT       0.417000        1.0080           0
     12813 WT1      4080     TIP3     H2       HT       0.417000        1.0080           0
     12814 WT1      4081     TIP3     OH2      OT      -0.834000       15.9994           0
     12815 WT1      4081     TIP3     H1       HT       0.417000        1.0080           0
     12816 WT1      4081     TIP3     H2       HT       0.417000        1.0080           0
     12817 WT1      4082     TIP3     OH2      OT      -0.834000       15.9994           0
     12818 WT1      4082     TIP3     H1       HT       0.417000        1.0080           0
     12819 WT1      4082     TIP3     H2       HT       0.417000        1.0080           0
     12820 WT1      4083     TIP3     OH2      OT      -0.834000       15.9994           0
     12821 WT1      4083     TIP3     H1       HT       0.417000        1.0080           0
     12822 WT1      4083     TIP3     H2       HT       0.417000        1.0080           0
     12823 WT1      4084     TIP3     OH2      OT      -0.834000       15.9994           0
     12824 WT1      4084     TIP3     H1       HT       0.417000        1.0080           0
     12825 WT1      4084     TIP3     H2       HT       0.417000        1.0080           0
     12826 WT1      4085     TIP3     OH2      OT      -0.834000       15.9994           0
     12827 WT1      4085     TIP3     H1       HT       0.417000        1.0080           0
     12828 WT1      4085     TIP3     H2       HT       0.417000        1.0080           0
     12829 WT1      4086     TIP3     OH2      OT      -0.834000       15.9994           0
     12830 WT1      4086     TIP3     H1       HT       0.417000        1.0080           0
     12831 WT1      4086     TIP3     H2       HT       0.417000        1.0080           0
     12832 WT1      4087     TIP3     OH2      OT      -0.834000       15.9994           0
     12833 WT1      4087     TIP3     H1       HT       0.417000        1.0080           0
     12834 WT1      4087     TIP3     H2       HT       0.417000        1.0080           0
     12835 WT1      4088     TIP3     OH2      OT      -0.834000       15.9994           0
     12836 WT1      4088     TIP3     H1       HT       0.417000        1.0080           0
     12837 WT1      4088     TIP3     H2       HT       0.417000        1.0080           0
     12838 WT1      4089     TIP3     OH2      OT      -0.834000       15.9994           0
     12839 WT1      4089     TIP3     H1       HT       0.417000        1.0080           0
     12840 WT1      4089     TIP3     H2       HT       0.417000        1.0080           0
     12841 WT1      4090     TIP3     OH2      OT      -0.834000       15.9994           0
     12842 WT1      4090     TIP3     H1       HT       0.417000        1.0080           0
     12843 WT1      4090     TIP3     H2       HT       0.417000        1.0080           0
     12844 WT1      4091     TIP3     OH2      OT      -0.834000       15.9994           0
     12845 WT1      4091     TIP3     H1       HT       0.417000        1.0080           0
     12846 WT1      4091     TIP3     H2       HT       0.417000        1.0080           0
     12847 WT1      4092     TIP3     OH2      OT      -0.834000       15.9994           0
     12848 WT1      4092     TIP3     H1       HT       0.417000        1.0080           0
     12849 WT1      4092     TIP3     H2       HT       0.417000        1.0080           0
     12850 WT1      4093     TIP3     OH2      OT      -0.834000       15.9994           0
     12851 WT1      4093     TIP3     H1       HT       0.417000        1.0080           0
     12852 WT1      4093     TIP3     H2       HT       0.417000        1.0080           0
     12853 WT1      4095     TIP3     OH2      OT      -0.834000       15.9994           0
     12854 WT1      4095     TIP3     H1       HT       0.417000        1.0080           0
     12855 WT1      4095     TIP3     H2       HT       0.417000        1.0080           0
     12856 WT1      4096     TIP3     OH2      OT      -0.834000       15.9994           0
     12857 WT1      4096     TIP3     H1       HT       0.417000        1.0080           0
     12858 WT1      4096     TIP3     H2       HT       0.417000        1.0080           0
     12859 WT1      4097     TIP3     OH2      OT      -0.834000       15.9994           0
     12860 WT1      4097     TIP3     H1       HT       0.417000        1.0080           0
     12861 WT1      4097     TIP3     H2       HT       0.417000        1.0080           0
     12862 WT1      4098     TIP3     OH2      OT      -0.834000       15.9994           0
     12863 WT1      4098     TIP3     H1       HT       0.417000        1.0080           0
     12864 WT1      4098     TIP3     H2       HT       0.417000        1.0080           0
     12865 WT1      4099     TIP3     OH2      OT      -0.834000       15.9994           0
     12866 WT1      4099     TIP3     H1       HT       0.417000        1.0080           0
     12867 WT1      4099     TIP3     H2       HT       0.417000        1.0080           0
     12868 WT1      4100     TIP3     OH2      OT      -0.834000       15.9994           0
     12869 WT1      4100     TIP3     H1       HT       0.417000        1.0080           0
     12870 WT1      4100     TIP3     H2       HT       0.417000        1.0080           0
     12871 WT1      4101     TIP3     OH2      OT      -0.834000       15.9994           0
     12872 WT1      4101     TIP3     H1       HT       0.417000        1.0080           0
     12873 WT1      4101     TIP3     H2       HT       0.417000        1.0080           0
     12874 WT1      4102     TIP3     OH2      OT      -0.834000       15.9994           0
     12875 WT1      4102     TIP3     H1       HT       0.417000        1.0080           0
     12876 WT1      4102     TIP3     H2       HT       0.417000        1.0080           0
     12877 WT1      4103     TIP3     OH2      OT      -0.834000       15.9994           0
     12878 WT1      4103     TIP3     H1       HT       0.417000        1.0080           0
     12879 WT1      4103     TIP3     H2       HT       0.417000        1.0080           0
     12880 WT1      4104     TIP3     OH2      OT      -0.834000       15.9994           0
     12881 WT1      4104     TIP3     H1       HT       0.417000        1.0080           0
     12882 WT1      4104     TIP3     H2       HT       0.417000        1.0080           0
     12883 WT1      4105     TIP3     OH2      OT      -0.834000       15.9994           0
     12884 WT1      4105     TIP3     H1       HT       0.417000        1.0080           0
     12885 WT1      4105     TIP3     H2       HT       0.417000        1.0080           0
     12886 WT1      4106     TIP3     OH2      OT      -0.834000       15.9994           0
     12887 WT1      4106     TIP3     H1       HT       0.417000        1.0080           0
     12888 WT1      4106     TIP3     H2       HT       0.417000        1.0080           0
     12889 WT1      4107     TIP3     OH2      OT      -0.834000       15.9994           0
     12890 WT1      4107     TIP3     H1       HT       0.417000        1.0080           0
     12891 WT1      4107     TIP3     H2       HT       0.417000        1.0080           0
     12892 WT1      4108     TIP3     OH2      OT      -0.834000       15.9994           0
     12893 WT1      4108     TIP3     H1       HT       0.417000        1.0080           0
     12894 WT1      4108     TIP3     H2       HT       0.417000        1.0080           0
     12895 WT1      4109     TIP3     OH2      OT      -0.834000       15.9994           0
     12896 WT1      4109     TIP3     H1       HT       0.417000        1.0080           0
     12897 WT1      4109     TIP3     H2       HT       0.417000        1.0080           0
     12898 WT1      4110     TIP3     OH2      OT      -0.834000       15.9994           0
     12899 WT1      4110     TIP3     H1       HT       0.417000        1.0080           0
     12900 WT1      4110     TIP3     H2       HT       0.417000        1.0080           0
     12901 WT1      4111     TIP3     OH2      OT      -0.834000       15.9994           0
     12902 WT1      4111     TIP3     H1       HT       0.417000        1.0080           0
     12903 WT1      4111     TIP3     H2       HT       0.417000        1.0080           0
     12904 WT1      4112     TIP3     OH2      OT      -0.834000       15.9994           0
     12905 WT1      4112     TIP3     H1       HT       0.417000        1.0080           0
     12906 WT1      4112     TIP3     H2       HT       0.417000        1.0080           0
     12907 WT1      4113     TIP3     OH2      OT      -0.834000       15.9994           0
     12908 WT1      4113     TIP3     H1       HT       0.417000        1.0080           0
     12909 WT1      4113     TIP3     H2       HT       0.417000        1.0080           0
     12910 WT1      4114     TIP3     OH2      OT      -0.834000       15.9994           0
     12911 WT1      4114     TIP3     H1       HT       0.417000        1.0080           0
     12912 WT1      4114     TIP3     H2       HT       0.417000        1.0080           0
     12913 WT1      4115     TIP3     OH2      OT      -0.834000       15.9994           0
     12914 WT1      4115     TIP3     H1       HT       0.417000        1.0080           0
     12915 WT1      4115     TIP3     H2       HT       0.417000        1.0080           0
     12916 WT1      4116     TIP3     OH2      OT      -0.834000       15.9994           0
     12917 WT1      4116     TIP3     H1       HT       0.417000        1.0080           0
     12918 WT1      4116     TIP3     H2       HT       0.417000        1.0080           0
     12919 WT1      4117     TIP3     OH2      OT      -0.834000       15.9994           0
     12920 WT1      4117     TIP3     H1       HT       0.417000        1.0080           0
     12921 WT1      4117     TIP3     H2       HT       0.417000        1.0080           0
     12922 WT1      4118     TIP3     OH2      OT      -0.834000       15.9994           0
     12923 WT1      4118     TIP3     H1       HT       0.417000        1.0080           0
     12924 WT1      4118     TIP3     H2       HT       0.417000        1.0080           0
     12925 WT1      4119     TIP3     OH2      OT      -0.834000       15.9994           0
     12926 WT1      4119     TIP3     H1       HT       0.417000        1.0080           0
     12927 WT1      4119     TIP3     H2       HT       0.417000        1.0080           0
     12928 WT1      4120     TIP3     OH2      OT      -0.834000       15.9994           0
     12929 WT1      4120     TIP3     H1       HT       0.417000        1.0080           0
     12930 WT1      4120     TIP3     H2       HT       0.417000        1.0080           0
     12931 WT1      4121     TIP3     OH2      OT      -0.834000       15.9994           0
     12932 WT1      4121     TIP3     H1       HT       0.417000        1.0080           0
     12933 WT1      4121     TIP3     H2       HT       0.417000        1.0080           0
     12934 WT1      4122     TIP3     OH2      OT      -0.834000       15.9994           0
     12935 WT1      4122     TIP3     H1       HT       0.417000        1.0080           0
     12936 WT1      4122     TIP3     H2       HT       0.417000        1.0080           0
     12937 WT1      4123     TIP3     OH2      OT      -0.834000       15.9994           0
     12938 WT1      4123     TIP3     H1       HT       0.417000        1.0080           0
     12939 WT1      4123     TIP3     H2       HT       0.417000        1.0080           0
     12940 WT1      4124     TIP3     OH2      OT      -0.834000       15.9994           0
     12941 WT1      4124     TIP3     H1       HT       0.417000        1.0080           0
     12942 WT1      4124     TIP3     H2       HT       0.417000        1.0080           0
     12943 WT1      4125     TIP3     OH2      OT      -0.834000       15.9994           0
     12944 WT1      4125     TIP3     H1       HT       0.417000        1.0080           0
     12945 WT1      4125     TIP3     H2       HT       0.417000        1.0080           0
     12946 WT1      4126     TIP3     OH2      OT      -0.834000       15.9994           0
     12947 WT1      4126     TIP3     H1       HT       0.417000        1.0080           0
     12948 WT1      4126     TIP3     H2       HT       0.417000        1.0080           0
     12949 WT1      4127     TIP3     OH2      OT      -0.834000       15.9994           0
     12950 WT1      4127     TIP3     H1       HT       0.417000        1.0080           0
     12951 WT1      4127     TIP3     H2       HT       0.417000        1.0080           0
     12952 WT1      4128     TIP3     OH2      OT      -0.834000       15.9994           0
     12953 WT1      4128     TIP3     H1       HT       0.417000        1.0080           0
     12954 WT1      4128     TIP3     H2       HT       0.417000        1.0080           0
     12955 WT1      4129     TIP3     OH2      OT      -0.834000       15.9994           0
     12956 WT1      4129     TIP3     H1       HT       0.417000        1.0080           0
     12957 WT1      4129     TIP3     H2       HT       0.417000        1.0080           0
     12958 WT1      4130     TIP3     OH2      OT      -0.834000       15.9994           0
     12959 WT1      4130     TIP3     H1       HT       0.417000        1.0080           0
     12960 WT1      4130     TIP3     H2       HT       0.417000        1.0080           0
     12961 WT1      4131     TIP3     OH2      OT      -0.834000       15.9994           0
     12962 WT1      4131     TIP3     H1       HT       0.417000        1.0080           0
     12963 WT1      4131     TIP3     H2       HT       0.417000        1.0080           0
     12964 WT1      4132     TIP3     OH2      OT      -0.834000       15.9994           0
     12965 WT1      4132     TIP3     H1       HT       0.417000        1.0080           0
     12966 WT1      4132     TIP3     H2       HT       0.417000        1.0080           0
     12967 WT1      4133     TIP3     OH2      OT      -0.834000       15.9994           0
     12968 WT1      4133     TIP3     H1       HT       0.417000        1.0080           0
     12969 WT1      4133     TIP3     H2       HT       0.417000        1.0080           0
     12970 WT1      4134     TIP3     OH2      OT      -0.834000       15.9994           0
     12971 WT1      4134     TIP3     H1       HT       0.417000        1.0080           0
     12972 WT1      4134     TIP3     H2       HT       0.417000        1.0080           0
     12973 WT1      4135     TIP3     OH2      OT      -0.834000       15.9994           0
     12974 WT1      4135     TIP3     H1       HT       0.417000        1.0080           0
     12975 WT1      4135     TIP3     H2       HT       0.417000        1.0080           0
     12976 WT1      4136     TIP3     OH2      OT      -0.834000       15.9994           0
     12977 WT1      4136     TIP3     H1       HT       0.417000        1.0080           0
     12978 WT1      4136     TIP3     H2       HT       0.417000        1.0080           0
     12979 WT1      4137     TIP3     OH2      OT      -0.834000       15.9994           0
     12980 WT1      4137     TIP3     H1       HT       0.417000        1.0080           0
     12981 WT1      4137     TIP3     H2       HT       0.417000        1.0080           0
     12982 WT1      4138     TIP3     OH2      OT      -0.834000       15.9994           0
     12983 WT1      4138     TIP3     H1       HT       0.417000        1.0080           0
     12984 WT1      4138     TIP3     H2       HT       0.417000        1.0080           0
     12985 WT1      4139     TIP3     OH2      OT      -0.834000       15.9994           0
     12986 WT1      4139     TIP3     H1       HT       0.417000        1.0080           0
     12987 WT1      4139     TIP3     H2       HT       0.417000        1.0080           0
     12988 WT1      4140     TIP3     OH2      OT      -0.834000       15.9994           0
     12989 WT1      4140     TIP3     H1       HT       0.417000        1.0080           0
     12990 WT1      4140     TIP3     H2       HT       0.417000        1.0080           0
     12991 WT1      4141     TIP3     OH2      OT      -0.834000       15.9994           0
     12992 WT1      4141     TIP3     H1       HT       0.417000        1.0080           0
     12993 WT1      4141     TIP3     H2       HT       0.417000        1.0080           0
     12994 WT1      4142     TIP3     OH2      OT      -0.834000       15.9994           0
     12995 WT1      4142     TIP3     H1       HT       0.417000        1.0080           0
     12996 WT1      4142     TIP3     H2       HT       0.417000        1.0080           0
     12997 WT1      4143     TIP3     OH2      OT      -0.834000       15.9994           0
     12998 WT1      4143     TIP3     H1       HT       0.417000        1.0080           0
     12999 WT1      4143     TIP3     H2       HT       0.417000        1.0080           0
     13000 WT1      4144     TIP3     OH2      OT      -0.834000       15.9994           0
     13001 WT1      4144     TIP3     H1       HT       0.417000        1.0080           0
     13002 WT1      4144     TIP3     H2       HT       0.417000        1.0080           0
     13003 WT1      4145     TIP3     OH2      OT      -0.834000       15.9994           0
     13004 WT1      4145     TIP3     H1       HT       0.417000        1.0080           0
     13005 WT1      4145     TIP3     H2       HT       0.417000        1.0080           0
     13006 WT1      4146     TIP3     OH2      OT      -0.834000       15.9994           0
     13007 WT1      4146     TIP3     H1       HT       0.417000        1.0080           0
     13008 WT1      4146     TIP3     H2       HT       0.417000        1.0080           0
     13009 WT1      4147     TIP3     OH2      OT      -0.834000       15.9994           0
     13010 WT1      4147     TIP3     H1       HT       0.417000        1.0080           0
     13011 WT1      4147     TIP3     H2       HT       0.417000        1.0080           0
     13012 WT1      4148     TIP3     OH2      OT      -0.834000       15.9994           0
     13013 WT1      4148     TIP3     H1       HT       0.417000        1.0080           0
     13014 WT1      4148     TIP3     H2       HT       0.417000        1.0080           0
     13015 WT1      4149     TIP3     OH2      OT      -0.834000       15.9994           0
     13016 WT1      4149     TIP3     H1       HT       0.417000        1.0080           0
     13017 WT1      4149     TIP3     H2       HT       0.417000        1.0080           0
     13018 WT1      4150     TIP3     OH2      OT      -0.834000       15.9994           0
     13019 WT1      4150     TIP3     H1       HT       0.417000        1.0080           0
     13020 WT1      4150     TIP3     H2       HT       0.417000        1.0080           0
     13021 WT1      4151     TIP3     OH2      OT      -0.834000       15.9994           0
     13022 WT1      4151     TIP3     H1       HT       0.417000        1.0080           0
     13023 WT1      4151     TIP3     H2       HT       0.417000        1.0080           0
     13024 WT1      4152     TIP3     OH2      OT      -0.834000       15.9994           0
     13025 WT1      4152     TIP3     H1       HT       0.417000        1.0080           0
     13026 WT1      4152     TIP3     H2       HT       0.417000        1.0080           0
     13027 WT1      4153     TIP3     OH2      OT      -0.834000       15.9994           0
     13028 WT1      4153     TIP3     H1       HT       0.417000        1.0080           0
     13029 WT1      4153     TIP3     H2       HT       0.417000        1.0080           0
     13030 WT1      4154     TIP3     OH2      OT      -0.834000       15.9994           0
     13031 WT1      4154     TIP3     H1       HT       0.417000        1.0080           0
     13032 WT1      4154     TIP3     H2       HT       0.417000        1.0080           0
     13033 WT1      4155     TIP3     OH2      OT      -0.834000       15.9994           0
     13034 WT1      4155     TIP3     H1       HT       0.417000        1.0080           0
     13035 WT1      4155     TIP3     H2       HT       0.417000        1.0080           0
     13036 WT1      4156     TIP3     OH2      OT      -0.834000       15.9994           0
     13037 WT1      4156     TIP3     H1       HT       0.417000        1.0080           0
     13038 WT1      4156     TIP3     H2       HT       0.417000        1.0080           0
     13039 WT1      4157     TIP3     OH2      OT      -0.834000       15.9994           0
     13040 WT1      4157     TIP3     H1       HT       0.417000        1.0080           0
     13041 WT1      4157     TIP3     H2       HT       0.417000        1.0080           0
     13042 WT1      4158     TIP3     OH2      OT      -0.834000       15.9994           0
     13043 WT1      4158     TIP3     H1       HT       0.417000        1.0080           0
     13044 WT1      4158     TIP3     H2       HT       0.417000        1.0080           0
     13045 WT1      4159     TIP3     OH2      OT      -0.834000       15.9994           0
     13046 WT1      4159     TIP3     H1       HT       0.417000        1.0080           0
     13047 WT1      4159     TIP3     H2       HT       0.417000        1.0080           0
     13048 WT1      4160     TIP3     OH2      OT      -0.834000       15.9994           0
     13049 WT1      4160     TIP3     H1       HT       0.417000        1.0080           0
     13050 WT1      4160     TIP3     H2       HT       0.417000        1.0080           0
     13051 WT1      4161     TIP3     OH2      OT      -0.834000       15.9994           0
     13052 WT1      4161     TIP3     H1       HT       0.417000        1.0080           0
     13053 WT1      4161     TIP3     H2       HT       0.417000        1.0080           0
     13054 WT1      4162     TIP3     OH2      OT      -0.834000       15.9994           0
     13055 WT1      4162     TIP3     H1       HT       0.417000        1.0080           0
     13056 WT1      4162     TIP3     H2       HT       0.417000        1.0080           0
     13057 WT1      4163     TIP3     OH2      OT      -0.834000       15.9994           0
     13058 WT1      4163     TIP3     H1       HT       0.417000        1.0080           0
     13059 WT1      4163     TIP3     H2       HT       0.417000        1.0080           0
     13060 WT1      4164     TIP3     OH2      OT      -0.834000       15.9994           0
     13061 WT1      4164     TIP3     H1       HT       0.417000        1.0080           0
     13062 WT1      4164     TIP3     H2       HT       0.417000        1.0080           0
     13063 WT1      4165     TIP3     OH2      OT      -0.834000       15.9994           0
     13064 WT1      4165     TIP3     H1       HT       0.417000        1.0080           0
     13065 WT1      4165     TIP3     H2       HT       0.417000        1.0080           0
     13066 WT1      4166     TIP3     OH2      OT      -0.834000       15.9994           0
     13067 WT1      4166     TIP3     H1       HT       0.417000        1.0080           0
     13068 WT1      4166     TIP3     H2       HT       0.417000        1.0080           0
     13069 WT1      4167     TIP3     OH2      OT      -0.834000       15.9994           0
     13070 WT1      4167     TIP3     H1       HT       0.417000        1.0080           0
     13071 WT1      4167     TIP3     H2       HT       0.417000        1.0080           0
     13072 WT1      4168     TIP3     OH2      OT      -0.834000       15.9994           0
     13073 WT1      4168     TIP3     H1       HT       0.417000        1.0080           0
     13074 WT1      4168     TIP3     H2       HT       0.417000        1.0080           0
     13075 WT1      4169     TIP3     OH2      OT      -0.834000       15.9994           0
     13076 WT1      4169     TIP3     H1       HT       0.417000        1.0080           0
     13077 WT1      4169     TIP3     H2       HT       0.417000        1.0080           0
     13078 WT1      4170     TIP3     OH2      OT      -0.834000       15.9994           0
     13079 WT1      4170     TIP3     H1       HT       0.417000        1.0080           0
     13080 WT1      4170     TIP3     H2       HT       0.417000        1.0080           0
     13081 WT1      4171     TIP3     OH2      OT      -0.834000       15.9994           0
     13082 WT1      4171     TIP3     H1       HT       0.417000        1.0080           0
     13083 WT1      4171     TIP3     H2       HT       0.417000        1.0080           0
     13084 WT1      4172     TIP3     OH2      OT      -0.834000       15.9994           0
     13085 WT1      4172     TIP3     H1       HT       0.417000        1.0080           0
     13086 WT1      4172     TIP3     H2       HT       0.417000        1.0080           0
     13087 WT1      4173     TIP3     OH2      OT      -0.834000       15.9994           0
     13088 WT1      4173     TIP3     H1       HT       0.417000        1.0080           0
     13089 WT1      4173     TIP3     H2       HT       0.417000        1.0080           0
     13090 WT1      4174     TIP3     OH2      OT      -0.834000       15.9994           0
     13091 WT1      4174     TIP3     H1       HT       0.417000        1.0080           0
     13092 WT1      4174     TIP3     H2       HT       0.417000        1.0080           0
     13093 WT1      4175     TIP3     OH2      OT      -0.834000       15.9994           0
     13094 WT1      4175     TIP3     H1       HT       0.417000        1.0080           0
     13095 WT1      4175     TIP3     H2       HT       0.417000        1.0080           0
     13096 WT1      4176     TIP3     OH2      OT      -0.834000       15.9994           0
     13097 WT1      4176     TIP3     H1       HT       0.417000        1.0080           0
     13098 WT1      4176     TIP3     H2       HT       0.417000        1.0080           0
     13099 WT1      4177     TIP3     OH2      OT      -0.834000       15.9994           0
     13100 WT1      4177     TIP3     H1       HT       0.417000        1.0080           0
     13101 WT1      4177     TIP3     H2       HT       0.417000        1.0080           0
     13102 WT1      4178     TIP3     OH2      OT      -0.834000       15.9994           0
     13103 WT1      4178     TIP3     H1       HT       0.417000        1.0080           0
     13104 WT1      4178     TIP3     H2       HT       0.417000        1.0080           0
     13105 WT1      4179     TIP3     OH2      OT      -0.834000       15.9994           0
     13106 WT1      4179     TIP3     H1       HT       0.417000        1.0080           0
     13107 WT1      4179     TIP3     H2       HT       0.417000        1.0080           0
     13108 WT1      4180     TIP3     OH2      OT      -0.834000       15.9994           0
     13109 WT1      4180     TIP3     H1       HT       0.417000        1.0080           0
     13110 WT1      4180     TIP3     H2       HT       0.417000        1.0080           0
     13111 WT1      4181     TIP3     OH2      OT      -0.834000       15.9994           0
     13112 WT1      4181     TIP3     H1       HT       0.417000        1.0080           0
     13113 WT1      4181     TIP3     H2       HT       0.417000        1.0080           0
     13114 WT1      4182     TIP3     OH2      OT      -0.834000       15.9994           0
     13115 WT1      4182     TIP3     H1       HT       0.417000        1.0080           0
     13116 WT1      4182     TIP3     H2       HT       0.417000        1.0080           0
     13117 WT1      4183     TIP3     OH2      OT      -0.834000       15.9994           0
     13118 WT1      4183     TIP3     H1       HT       0.417000        1.0080           0
     13119 WT1      4183     TIP3     H2       HT       0.417000        1.0080           0
     13120 WT1      4184     TIP3     OH2      OT      -0.834000       15.9994           0
     13121 WT1      4184     TIP3     H1       HT       0.417000        1.0080           0
     13122 WT1      4184     TIP3     H2       HT       0.417000        1.0080           0
     13123 WT1      4185     TIP3     OH2      OT      -0.834000       15.9994           0
     13124 WT1      4185     TIP3     H1       HT       0.417000        1.0080           0
     13125 WT1      4185     TIP3     H2       HT       0.417000        1.0080           0
     13126 WT1      4186     TIP3     OH2      OT      -0.834000       15.9994           0
     13127 WT1      4186     TIP3     H1       HT       0.417000        1.0080           0
     13128 WT1      4186     TIP3     H2       HT       0.417000        1.0080           0
     13129 WT1      4187     TIP3     OH2      OT      -0.834000       15.9994           0
     13130 WT1      4187     TIP3     H1       HT       0.417000        1.0080           0
     13131 WT1      4187     TIP3     H2       HT       0.417000        1.0080           0
     13132 WT1      4188     TIP3     OH2      OT      -0.834000       15.9994           0
     13133 WT1      4188     TIP3     H1       HT       0.417000        1.0080           0
     13134 WT1      4188     TIP3     H2       HT       0.417000        1.0080           0
     13135 WT1      4189     TIP3     OH2      OT      -0.834000       15.9994           0
     13136 WT1      4189     TIP3     H1       HT       0.417000        1.0080           0
     13137 WT1      4189     TIP3     H2       HT       0.417000        1.0080           0
     13138 WT1      4190     TIP3     OH2      OT      -0.834000       15.9994           0
     13139 WT1      4190     TIP3     H1       HT       0.417000        1.0080           0
     13140 WT1      4190     TIP3     H2       HT       0.417000        1.0080           0
     13141 WT1      4191     TIP3     OH2      OT      -0.834000       15.9994           0
     13142 WT1      4191     TIP3     H1       HT       0.417000        1.0080           0
     13143 WT1      4191     TIP3     H2       HT       0.417000        1.0080           0
     13144 WT1      4192     TIP3     OH2      OT      -0.834000       15.9994           0
     13145 WT1      4192     TIP3     H1       HT       0.417000        1.0080           0
     13146 WT1      4192     TIP3     H2       HT       0.417000        1.0080           0
     13147 WT1      4193     TIP3     OH2      OT      -0.834000       15.9994           0
     13148 WT1      4193     TIP3     H1       HT       0.417000        1.0080           0
     13149 WT1      4193     TIP3     H2       HT       0.417000        1.0080           0
     13150 WT1      4194     TIP3     OH2      OT      -0.834000       15.9994           0
     13151 WT1      4194     TIP3     H1       HT       0.417000        1.0080           0
     13152 WT1      4194     TIP3     H2       HT       0.417000        1.0080           0
     13153 WT1      4195     TIP3     OH2      OT      -0.834000       15.9994           0
     13154 WT1      4195     TIP3     H1       HT       0.417000        1.0080           0
     13155 WT1      4195     TIP3     H2       HT       0.417000        1.0080           0
     13156 WT1      4196     TIP3     OH2      OT      -0.834000       15.9994           0
     13157 WT1      4196     TIP3     H1       HT       0.417000        1.0080           0
     13158 WT1      4196     TIP3     H2       HT       0.417000        1.0080           0
     13159 WT1      4197     TIP3     OH2      OT      -0.834000       15.9994           0
     13160 WT1      4197     TIP3     H1       HT       0.417000        1.0080           0
     13161 WT1      4197     TIP3     H2       HT       0.417000        1.0080           0
     13162 WT1      4198     TIP3     OH2      OT      -0.834000       15.9994           0
     13163 WT1      4198     TIP3     H1       HT       0.417000        1.0080           0
     13164 WT1      4198     TIP3     H2       HT       0.417000        1.0080           0
     13165 WT1      4199     TIP3     OH2      OT      -0.834000       15.9994           0
     13166 WT1      4199     TIP3     H1       HT       0.417000        1.0080           0
     13167 WT1      4199     TIP3     H2       HT       0.417000        1.0080           0
     13168 WT1      4200     TIP3     OH2      OT      -0.834000       15.9994           0
     13169 WT1      4200     TIP3     H1       HT       0.417000        1.0080           0
     13170 WT1      4200     TIP3     H2       HT       0.417000        1.0080           0
     13171 WT1      4201     TIP3     OH2      OT      -0.834000       15.9994           0
     13172 WT1      4201     TIP3     H1       HT       0.417000        1.0080           0
     13173 WT1      4201     TIP3     H2       HT       0.417000        1.0080           0
     13174 WT1      4202     TIP3     OH2      OT      -0.834000       15.9994           0
     13175 WT1      4202     TIP3     H1       HT       0.417000        1.0080           0
     13176 WT1      4202     TIP3     H2       HT       0.417000        1.0080           0
     13177 WT1      4203     TIP3     OH2      OT      -0.834000       15.9994           0
     13178 WT1      4203     TIP3     H1       HT       0.417000        1.0080           0
     13179 WT1      4203     TIP3     H2       HT       0.417000        1.0080           0
     13180 WT1      4204     TIP3     OH2      OT      -0.834000       15.9994           0
     13181 WT1      4204     TIP3     H1       HT       0.417000        1.0080           0
     13182 WT1      4204     TIP3     H2       HT       0.417000        1.0080           0
     13183 WT1      4205     TIP3     OH2      OT      -0.834000       15.9994           0
     13184 WT1      4205     TIP3     H1       HT       0.417000        1.0080           0
     13185 WT1      4205     TIP3     H2       HT       0.417000        1.0080           0
     13186 WT1      4206     TIP3     OH2      OT      -0.834000       15.9994           0
     13187 WT1      4206     TIP3     H1       HT       0.417000        1.0080           0
     13188 WT1      4206     TIP3     H2       HT       0.417000        1.0080           0
     13189 WT1      4207     TIP3     OH2      OT      -0.834000       15.9994           0
     13190 WT1      4207     TIP3     H1       HT       0.417000        1.0080           0
     13191 WT1      4207     TIP3     H2       HT       0.417000        1.0080           0
     13192 WT1      4208     TIP3     OH2      OT      -0.834000       15.9994           0
     13193 WT1      4208     TIP3     H1       HT       0.417000        1.0080           0
     13194 WT1      4208     TIP3     H2       HT       0.417000        1.0080           0
     13195 WT1      4209     TIP3     OH2      OT      -0.834000       15.9994           0
     13196 WT1      4209     TIP3     H1       HT       0.417000        1.0080           0
     13197 WT1      4209     TIP3     H2       HT       0.417000        1.0080           0
     13198 WT1      4210     TIP3     OH2      OT      -0.834000       15.9994           0
     13199 WT1      4210     TIP3     H1       HT       0.417000        1.0080           0
     13200 WT1      4210     TIP3     H2       HT       0.417000        1.0080           0
     13201 WT1      4211     TIP3     OH2      OT      -0.834000       15.9994           0
     13202 WT1      4211     TIP3     H1       HT       0.417000        1.0080           0
     13203 WT1      4211     TIP3     H2       HT       0.417000        1.0080           0
     13204 WT1      4212     TIP3     OH2      OT      -0.834000       15.9994           0
     13205 WT1      4212     TIP3     H1       HT       0.417000        1.0080           0
     13206 WT1      4212     TIP3     H2       HT       0.417000        1.0080           0
     13207 WT1      4213     TIP3     OH2      OT      -0.834000       15.9994           0
     13208 WT1      4213     TIP3     H1       HT       0.417000        1.0080           0
     13209 WT1      4213     TIP3     H2       HT       0.417000        1.0080           0
     13210 WT1      4214     TIP3     OH2      OT      -0.834000       15.9994           0
     13211 WT1      4214     TIP3     H1       HT       0.417000        1.0080           0
     13212 WT1      4214     TIP3     H2       HT       0.417000        1.0080           0
     13213 WT1      4215     TIP3     OH2      OT      -0.834000       15.9994           0
     13214 WT1      4215     TIP3     H1       HT       0.417000        1.0080           0
     13215 WT1      4215     TIP3     H2       HT       0.417000        1.0080           0
     13216 WT1      4216     TIP3     OH2      OT      -0.834000       15.9994           0
     13217 WT1      4216     TIP3     H1       HT       0.417000        1.0080           0
     13218 WT1      4216     TIP3     H2       HT       0.417000        1.0080           0
     13219 WT1      4217     TIP3     OH2      OT      -0.834000       15.9994           0
     13220 WT1      4217     TIP3     H1       HT       0.417000        1.0080           0
     13221 WT1      4217     TIP3     H2       HT       0.417000        1.0080           0
     13222 WT1      4218     TIP3     OH2      OT      -0.834000       15.9994           0
     13223 WT1      4218     TIP3     H1       HT       0.417000        1.0080           0
     13224 WT1      4218     TIP3     H2       HT       0.417000        1.0080           0
     13225 WT1      4219     TIP3     OH2      OT      -0.834000       15.9994           0
     13226 WT1      4219     TIP3     H1       HT       0.417000        1.0080           0
     13227 WT1      4219     TIP3     H2       HT       0.417000        1.0080           0
     13228 WT1      4220     TIP3     OH2      OT      -0.834000       15.9994           0
     13229 WT1      4220     TIP3     H1       HT       0.417000        1.0080           0
     13230 WT1      4220     TIP3     H2       HT       0.417000        1.0080           0
     13231 WT1      4221     TIP3     OH2      OT      -0.834000       15.9994           0
     13232 WT1      4221     TIP3     H1       HT       0.417000        1.0080           0
     13233 WT1      4221     TIP3     H2       HT       0.417000        1.0080           0
     13234 WT1      4222     TIP3     OH2      OT      -0.834000       15.9994           0
     13235 WT1      4222     TIP3     H1       HT       0.417000        1.0080           0
     13236 WT1      4222     TIP3     H2       HT       0.417000        1.0080           0
     13237 WT1      4223     TIP3     OH2      OT      -0.834000       15.9994           0
     13238 WT1      4223     TIP3     H1       HT       0.417000        1.0080           0
     13239 WT1      4223     TIP3     H2       HT       0.417000        1.0080           0
     13240 WT1      4224     TIP3     OH2      OT      -0.834000       15.9994           0
     13241 WT1      4224     TIP3     H1       HT       0.417000        1.0080           0
     13242 WT1      4224     TIP3     H2       HT       0.417000        1.0080           0
     13243 WT1      4225     TIP3     OH2      OT      -0.834000       15.9994           0
     13244 WT1      4225     TIP3     H1       HT       0.417000        1.0080           0
     13245 WT1      4225     TIP3     H2       HT       0.417000        1.0080           0
     13246 WT1      4226     TIP3     OH2      OT      -0.834000       15.9994           0
     13247 WT1      4226     TIP3     H1       HT       0.417000        1.0080           0
     13248 WT1      4226     TIP3     H2       HT       0.417000        1.0080           0
     13249 WT1      4227     TIP3     OH2      OT      -0.834000       15.9994           0
     13250 WT1      4227     TIP3     H1       HT       0.417000        1.0080           0
     13251 WT1      4227     TIP3     H2       HT       0.417000        1.0080           0
     13252 WT1      4228     TIP3     OH2      OT      -0.834000       15.9994           0
     13253 WT1      4228     TIP3     H1       HT       0.417000        1.0080           0
     13254 WT1      4228     TIP3     H2       HT       0.417000        1.0080           0
     13255 WT1      4229     TIP3     OH2      OT      -0.834000       15.9994           0
     13256 WT1      4229     TIP3     H1       HT       0.417000        1.0080           0
     13257 WT1      4229     TIP3     H2       HT       0.417000        1.0080           0
     13258 WT1      4230     TIP3     OH2      OT      -0.834000       15.9994           0
     13259 WT1      4230     TIP3     H1       HT       0.417000        1.0080           0
     13260 WT1      4230     TIP3     H2       HT       0.417000        1.0080           0
     13261 WT1      4231     TIP3     OH2      OT      -0.834000       15.9994           0
     13262 WT1      4231     TIP3     H1       HT       0.417000        1.0080           0
     13263 WT1      4231     TIP3     H2       HT       0.417000        1.0080           0
     13264 WT1      4232     TIP3     OH2      OT      -0.834000       15.9994           0
     13265 WT1      4232     TIP3     H1       HT       0.417000        1.0080           0
     13266 WT1      4232     TIP3     H2       HT       0.417000        1.0080           0
     13267 WT1      4233     TIP3     OH2      OT      -0.834000       15.9994           0
     13268 WT1      4233     TIP3     H1       HT       0.417000        1.0080           0
     13269 WT1      4233     TIP3     H2       HT       0.417000        1.0080           0
     13270 WT1      4234     TIP3     OH2      OT      -0.834000       15.9994           0
     13271 WT1      4234     TIP3     H1       HT       0.417000        1.0080           0
     13272 WT1      4234     TIP3     H2       HT       0.417000        1.0080           0
     13273 WT1      4235     TIP3     OH2      OT      -0.834000       15.9994           0
     13274 WT1      4235     TIP3     H1       HT       0.417000        1.0080           0
     13275 WT1      4235     TIP3     H2       HT       0.417000        1.0080           0
     13276 WT1      4236     TIP3     OH2      OT      -0.834000       15.9994           0
     13277 WT1      4236     TIP3     H1       HT       0.417000        1.0080           0
     13278 WT1      4236     TIP3     H2       HT       0.417000        1.0080           0
     13279 WT1      4237     TIP3     OH2      OT      -0.834000       15.9994           0
     13280 WT1      4237     TIP3     H1       HT       0.417000        1.0080           0
     13281 WT1      4237     TIP3     H2       HT       0.417000        1.0080           0
     13282 WT1      4239     TIP3     OH2      OT      -0.834000       15.9994           0
     13283 WT1      4239     TIP3     H1       HT       0.417000        1.0080           0
     13284 WT1      4239     TIP3     H2       HT       0.417000        1.0080           0
     13285 WT1      4240     TIP3     OH2      OT      -0.834000       15.9994           0
     13286 WT1      4240     TIP3     H1       HT       0.417000        1.0080           0
     13287 WT1      4240     TIP3     H2       HT       0.417000        1.0080           0
     13288 WT1      4241     TIP3     OH2      OT      -0.834000       15.9994           0
     13289 WT1      4241     TIP3     H1       HT       0.417000        1.0080           0
     13290 WT1      4241     TIP3     H2       HT       0.417000        1.0080           0
     13291 WT1      4242     TIP3     OH2      OT      -0.834000       15.9994           0
     13292 WT1      4242     TIP3     H1       HT       0.417000        1.0080           0
     13293 WT1      4242     TIP3     H2       HT       0.417000        1.0080           0
     13294 WT1      4243     TIP3     OH2      OT      -0.834000       15.9994           0
     13295 WT1      4243     TIP3     H1       HT       0.417000        1.0080           0
     13296 WT1      4243     TIP3     H2       HT       0.417000        1.0080           0
     13297 WT1      4245     TIP3     OH2      OT      -0.834000       15.9994           0
     13298 WT1      4245     TIP3     H1       HT       0.417000        1.0080           0
     13299 WT1      4245     TIP3     H2       HT       0.417000        1.0080           0
     13300 WT1      4246     TIP3     OH2      OT      -0.834000       15.9994           0
     13301 WT1      4246     TIP3     H1       HT       0.417000        1.0080           0
     13302 WT1      4246     TIP3     H2       HT       0.417000        1.0080           0
     13303 WT1      4247     TIP3     OH2      OT      -0.834000       15.9994           0
     13304 WT1      4247     TIP3     H1       HT       0.417000        1.0080           0
     13305 WT1      4247     TIP3     H2       HT       0.417000        1.0080           0
     13306 WT1      4248     TIP3     OH2      OT      -0.834000       15.9994           0
     13307 WT1      4248     TIP3     H1       HT       0.417000        1.0080           0
     13308 WT1      4248     TIP3     H2       HT       0.417000        1.0080           0
     13309 WT1      4249     TIP3     OH2      OT      -0.834000       15.9994           0
     13310 WT1      4249     TIP3     H1       HT       0.417000        1.0080           0
     13311 WT1      4249     TIP3     H2       HT       0.417000        1.0080           0
     13312 WT1      4250     TIP3     OH2      OT      -0.834000       15.9994           0
     13313 WT1      4250     TIP3     H1       HT       0.417000        1.0080           0
     13314 WT1      4250     TIP3     H2       HT       0.417000        1.0080           0
     13315 WT1      4251     TIP3     OH2      OT      -0.834000       15.9994           0
     13316 WT1      4251     TIP3     H1       HT       0.417000        1.0080           0
     13317 WT1      4251     TIP3     H2       HT       0.417000        1.0080           0
     13318 WT1      4252     TIP3     OH2      OT      -0.834000       15.9994           0
     13319 WT1      4252     TIP3     H1       HT       0.417000        1.0080           0
     13320 WT1      4252     TIP3     H2       HT       0.417000        1.0080           0
     13321 WT1      4253     TIP3     OH2      OT      -0.834000       15.9994           0
     13322 WT1      4253     TIP3     H1       HT       0.417000        1.0080           0
     13323 WT1      4253     TIP3     H2       HT       0.417000        1.0080           0
     13324 WT1      4254     TIP3     OH2      OT      -0.834000       15.9994           0
     13325 WT1      4254     TIP3     H1       HT       0.417000        1.0080           0
     13326 WT1      4254     TIP3     H2       HT       0.417000        1.0080           0
     13327 WT1      4255     TIP3     OH2      OT      -0.834000       15.9994           0
     13328 WT1      4255     TIP3     H1       HT       0.417000        1.0080           0
     13329 WT1      4255     TIP3     H2       HT       0.417000        1.0080           0
     13330 WT1      4256     TIP3     OH2      OT      -0.834000       15.9994           0
     13331 WT1      4256     TIP3     H1       HT       0.417000        1.0080           0
     13332 WT1      4256     TIP3     H2       HT       0.417000        1.0080           0
     13333 WT1      4257     TIP3     OH2      OT      -0.834000       15.9994           0
     13334 WT1      4257     TIP3     H1       HT       0.417000        1.0080           0
     13335 WT1      4257     TIP3     H2       HT       0.417000        1.0080           0
     13336 WT1      4258     TIP3     OH2      OT      -0.834000       15.9994           0
     13337 WT1      4258     TIP3     H1       HT       0.417000        1.0080           0
     13338 WT1      4258     TIP3     H2       HT       0.417000        1.0080           0
     13339 WT1      4259     TIP3     OH2      OT      -0.834000       15.9994           0
     13340 WT1      4259     TIP3     H1       HT       0.417000        1.0080           0
     13341 WT1      4259     TIP3     H2       HT       0.417000        1.0080           0
     13342 WT1      4260     TIP3     OH2      OT      -0.834000       15.9994           0
     13343 WT1      4260     TIP3     H1       HT       0.417000        1.0080           0
     13344 WT1      4260     TIP3     H2       HT       0.417000        1.0080           0
     13345 WT1      4261     TIP3     OH2      OT      -0.834000       15.9994           0
     13346 WT1      4261     TIP3     H1       HT       0.417000        1.0080           0
     13347 WT1      4261     TIP3     H2       HT       0.417000        1.0080           0
     13348 WT1      4262     TIP3     OH2      OT      -0.834000       15.9994           0
     13349 WT1      4262     TIP3     H1       HT       0.417000        1.0080           0
     13350 WT1      4262     TIP3     H2       HT       0.417000        1.0080           0
     13351 WT1      4263     TIP3     OH2      OT      -0.834000       15.9994           0
     13352 WT1      4263     TIP3     H1       HT       0.417000        1.0080           0
     13353 WT1      4263     TIP3     H2       HT       0.417000        1.0080           0
     13354 WT1      4264     TIP3     OH2      OT      -0.834000       15.9994           0
     13355 WT1      4264     TIP3     H1       HT       0.417000        1.0080           0
     13356 WT1      4264     TIP3     H2       HT       0.417000        1.0080           0
     13357 WT1      4265     TIP3     OH2      OT      -0.834000       15.9994           0
     13358 WT1      4265     TIP3     H1       HT       0.417000        1.0080           0
     13359 WT1      4265     TIP3     H2       HT       0.417000        1.0080           0
     13360 WT1      4266     TIP3     OH2      OT      -0.834000       15.9994           0
     13361 WT1      4266     TIP3     H1       HT       0.417000        1.0080           0
     13362 WT1      4266     TIP3     H2       HT       0.417000        1.0080           0
     13363 WT1      4267     TIP3     OH2      OT      -0.834000       15.9994           0
     13364 WT1      4267     TIP3     H1       HT       0.417000        1.0080           0
     13365 WT1      4267     TIP3     H2       HT       0.417000        1.0080           0
     13366 WT1      4268     TIP3     OH2      OT      -0.834000       15.9994           0
     13367 WT1      4268     TIP3     H1       HT       0.417000        1.0080           0
     13368 WT1      4268     TIP3     H2       HT       0.417000        1.0080           0
     13369 WT1      4269     TIP3     OH2      OT      -0.834000       15.9994           0
     13370 WT1      4269     TIP3     H1       HT       0.417000        1.0080           0
     13371 WT1      4269     TIP3     H2       HT       0.417000        1.0080           0
     13372 WT1      4270     TIP3     OH2      OT      -0.834000       15.9994           0
     13373 WT1      4270     TIP3     H1       HT       0.417000        1.0080           0
     13374 WT1      4270     TIP3     H2       HT       0.417000        1.0080           0
     13375 WT1      4271     TIP3     OH2      OT      -0.834000       15.9994           0
     13376 WT1      4271     TIP3     H1       HT       0.417000        1.0080           0
     13377 WT1      4271     TIP3     H2       HT       0.417000        1.0080           0
     13378 WT1      4272     TIP3     OH2      OT      -0.834000       15.9994           0
     13379 WT1      4272     TIP3     H1       HT       0.417000        1.0080           0
     13380 WT1      4272     TIP3     H2       HT       0.417000        1.0080           0
     13381 WT1      4273     TIP3     OH2      OT      -0.834000       15.9994           0
     13382 WT1      4273     TIP3     H1       HT       0.417000        1.0080           0
     13383 WT1      4273     TIP3     H2       HT       0.417000        1.0080           0
     13384 WT1      4274     TIP3     OH2      OT      -0.834000       15.9994           0
     13385 WT1      4274     TIP3     H1       HT       0.417000        1.0080           0
     13386 WT1      4274     TIP3     H2       HT       0.417000        1.0080           0
     13387 WT1      4275     TIP3     OH2      OT      -0.834000       15.9994           0
     13388 WT1      4275     TIP3     H1       HT       0.417000        1.0080           0
     13389 WT1      4275     TIP3     H2       HT       0.417000        1.0080           0
     13390 WT1      4276     TIP3     OH2      OT      -0.834000       15.9994           0
     13391 WT1      4276     TIP3     H1       HT       0.417000        1.0080           0
     13392 WT1      4276     TIP3     H2       HT       0.417000        1.0080           0
     13393 WT1      4277     TIP3     OH2      OT      -0.834000       15.9994           0
     13394 WT1      4277     TIP3     H1       HT       0.417000        1.0080           0
     13395 WT1      4277     TIP3     H2       HT       0.417000        1.0080           0
     13396 WT1      4278     TIP3     OH2      OT      -0.834000       15.9994           0
     13397 WT1      4278     TIP3     H1       HT       0.417000        1.0080           0
     13398 WT1      4278     TIP3     H2       HT       0.417000        1.0080           0
     13399 WT1      4279     TIP3     OH2      OT      -0.834000       15.9994           0
     13400 WT1      4279     TIP3     H1       HT       0.417000        1.0080           0
     13401 WT1      4279     TIP3     H2       HT       0.417000        1.0080           0
     13402 WT1      4280     TIP3     OH2      OT      -0.834000       15.9994           0
     13403 WT1      4280     TIP3     H1       HT       0.417000        1.0080           0
     13404 WT1      4280     TIP3     H2       HT       0.417000        1.0080           0
     13405 WT1      4281     TIP3     OH2      OT      -0.834000       15.9994           0
     13406 WT1      4281     TIP3     H1       HT       0.417000        1.0080           0
     13407 WT1      4281     TIP3     H2       HT       0.417000        1.0080           0
     13408 WT1      4282     TIP3     OH2      OT      -0.834000       15.9994           0
     13409 WT1      4282     TIP3     H1       HT       0.417000        1.0080           0
     13410 WT1      4282     TIP3     H2       HT       0.417000        1.0080           0
     13411 WT1      4283     TIP3     OH2      OT      -0.834000       15.9994           0
     13412 WT1      4283     TIP3     H1       HT       0.417000        1.0080           0
     13413 WT1      4283     TIP3     H2       HT       0.417000        1.0080           0
     13414 WT1      4284     TIP3     OH2      OT      -0.834000       15.9994           0
     13415 WT1      4284     TIP3     H1       HT       0.417000        1.0080           0
     13416 WT1      4284     TIP3     H2       HT       0.417000        1.0080           0
     13417 WT1      4285     TIP3     OH2      OT      -0.834000       15.9994           0
     13418 WT1      4285     TIP3     H1       HT       0.417000        1.0080           0
     13419 WT1      4285     TIP3     H2       HT       0.417000        1.0080           0
     13420 WT1      4286     TIP3     OH2      OT      -0.834000       15.9994           0
     13421 WT1      4286     TIP3     H1       HT       0.417000        1.0080           0
     13422 WT1      4286     TIP3     H2       HT       0.417000        1.0080           0
     13423 WT1      4287     TIP3     OH2      OT      -0.834000       15.9994           0
     13424 WT1      4287     TIP3     H1       HT       0.417000        1.0080           0
     13425 WT1      4287     TIP3     H2       HT       0.417000        1.0080           0
     13426 WT1      4288     TIP3     OH2      OT      -0.834000       15.9994           0
     13427 WT1      4288     TIP3     H1       HT       0.417000        1.0080           0
     13428 WT1      4288     TIP3     H2       HT       0.417000        1.0080           0
     13429 WT1      4289     TIP3     OH2      OT      -0.834000       15.9994           0
     13430 WT1      4289     TIP3     H1       HT       0.417000        1.0080           0
     13431 WT1      4289     TIP3     H2       HT       0.417000        1.0080           0
     13432 WT1      4290     TIP3     OH2      OT      -0.834000       15.9994           0
     13433 WT1      4290     TIP3     H1       HT       0.417000        1.0080           0
     13434 WT1      4290     TIP3     H2       HT       0.417000        1.0080           0
     13435 WT1      4291     TIP3     OH2      OT      -0.834000       15.9994           0
     13436 WT1      4291     TIP3     H1       HT       0.417000        1.0080           0
     13437 WT1      4291     TIP3     H2       HT       0.417000        1.0080           0
     13438 WT1      4292     TIP3     OH2      OT      -0.834000       15.9994           0
     13439 WT1      4292     TIP3     H1       HT       0.417000        1.0080           0
     13440 WT1      4292     TIP3     H2       HT       0.417000        1.0080           0
     13441 WT1      4293     TIP3     OH2      OT      -0.834000       15.9994           0
     13442 WT1      4293     TIP3     H1       HT       0.417000        1.0080           0
     13443 WT1      4293     TIP3     H2       HT       0.417000        1.0080           0
     13444 WT1      4294     TIP3     OH2      OT      -0.834000       15.9994           0
     13445 WT1      4294     TIP3     H1       HT       0.417000        1.0080           0
     13446 WT1      4294     TIP3     H2       HT       0.417000        1.0080           0
     13447 WT1      4295     TIP3     OH2      OT      -0.834000       15.9994           0
     13448 WT1      4295     TIP3     H1       HT       0.417000        1.0080           0
     13449 WT1      4295     TIP3     H2       HT       0.417000        1.0080           0
     13450 WT1      4296     TIP3     OH2      OT      -0.834000       15.9994           0
     13451 WT1      4296     TIP3     H1       HT       0.417000        1.0080           0
     13452 WT1      4296     TIP3     H2       HT       0.417000        1.0080           0
     13453 WT1      4297     TIP3     OH2      OT      -0.834000       15.9994           0
     13454 WT1      4297     TIP3     H1       HT       0.417000        1.0080           0
     13455 WT1      4297     TIP3     H2       HT       0.417000        1.0080           0
     13456 WT1      4298     TIP3     OH2      OT      -0.834000       15.9994           0
     13457 WT1      4298     TIP3     H1       HT       0.417000        1.0080           0
     13458 WT1      4298     TIP3     H2       HT       0.417000        1.0080           0
     13459 WT1      4299     TIP3     OH2      OT      -0.834000       15.9994           0
     13460 WT1      4299     TIP3     H1       HT       0.417000        1.0080           0
     13461 WT1      4299     TIP3     H2       HT       0.417000        1.0080           0
     13462 WT1      4300     TIP3     OH2      OT      -0.834000       15.9994           0
     13463 WT1      4300     TIP3     H1       HT       0.417000        1.0080           0
     13464 WT1      4300     TIP3     H2       HT       0.417000        1.0080           0
     13465 WT1      4301     TIP3     OH2      OT      -0.834000       15.9994           0
     13466 WT1      4301     TIP3     H1       HT       0.417000        1.0080           0
     13467 WT1      4301     TIP3     H2       HT       0.417000        1.0080           0
     13468 WT1      4302     TIP3     OH2      OT      -0.834000       15.9994           0
     13469 WT1      4302     TIP3     H1       HT       0.417000        1.0080           0
     13470 WT1      4302     TIP3     H2       HT       0.417000        1.0080           0
     13471 WT1      4303     TIP3     OH2      OT      -0.834000       15.9994           0
     13472 WT1      4303     TIP3     H1       HT       0.417000        1.0080           0
     13473 WT1      4303     TIP3     H2       HT       0.417000        1.0080           0
     13474 WT1      4304     TIP3     OH2      OT      -0.834000       15.9994           0
     13475 WT1      4304     TIP3     H1       HT       0.417000        1.0080           0
     13476 WT1      4304     TIP3     H2       HT       0.417000        1.0080           0
     13477 WT1      4305     TIP3     OH2      OT      -0.834000       15.9994           0
     13478 WT1      4305     TIP3     H1       HT       0.417000        1.0080           0
     13479 WT1      4305     TIP3     H2       HT       0.417000        1.0080           0
     13480 WT1      4306     TIP3     OH2      OT      -0.834000       15.9994           0
     13481 WT1      4306     TIP3     H1       HT       0.417000        1.0080           0
     13482 WT1      4306     TIP3     H2       HT       0.417000        1.0080           0
     13483 WT1      4307     TIP3     OH2      OT      -0.834000       15.9994           0
     13484 WT1      4307     TIP3     H1       HT       0.417000        1.0080           0
     13485 WT1      4307     TIP3     H2       HT       0.417000        1.0080           0
     13486 WT1      4308     TIP3     OH2      OT      -0.834000       15.9994           0
     13487 WT1      4308     TIP3     H1       HT       0.417000        1.0080           0
     13488 WT1      4308     TIP3     H2       HT       0.417000        1.0080           0
     13489 WT1      4309     TIP3     OH2      OT      -0.834000       15.9994           0
     13490 WT1      4309     TIP3     H1       HT       0.417000        1.0080           0
     13491 WT1      4309     TIP3     H2       HT       0.417000        1.0080           0
     13492 WT1      4310     TIP3     OH2      OT      -0.834000       15.9994           0
     13493 WT1      4310     TIP3     H1       HT       0.417000        1.0080           0
     13494 WT1      4310     TIP3     H2       HT       0.417000        1.0080           0
     13495 WT1      4311     TIP3     OH2      OT      -0.834000       15.9994           0
     13496 WT1      4311     TIP3     H1       HT       0.417000        1.0080           0
     13497 WT1      4311     TIP3     H2       HT       0.417000        1.0080           0
     13498 WT1      4312     TIP3     OH2      OT      -0.834000       15.9994           0
     13499 WT1      4312     TIP3     H1       HT       0.417000        1.0080           0
     13500 WT1      4312     TIP3     H2       HT       0.417000        1.0080           0
     13501 WT1      4313     TIP3     OH2      OT      -0.834000       15.9994           0
     13502 WT1      4313     TIP3     H1       HT       0.417000        1.0080           0
     13503 WT1      4313     TIP3     H2       HT       0.417000        1.0080           0
     13504 WT1      4314     TIP3     OH2      OT      -0.834000       15.9994           0
     13505 WT1      4314     TIP3     H1       HT       0.417000        1.0080           0
     13506 WT1      4314     TIP3     H2       HT       0.417000        1.0080           0
     13507 WT1      4315     TIP3     OH2      OT      -0.834000       15.9994           0
     13508 WT1      4315     TIP3     H1       HT       0.417000        1.0080           0
     13509 WT1      4315     TIP3     H2       HT       0.417000        1.0080           0
     13510 WT1      4316     TIP3     OH2      OT      -0.834000       15.9994           0
     13511 WT1      4316     TIP3     H1       HT       0.417000        1.0080           0
     13512 WT1      4316     TIP3     H2       HT       0.417000        1.0080           0
     13513 WT1      4317     TIP3     OH2      OT      -0.834000       15.9994           0
     13514 WT1      4317     TIP3     H1       HT       0.417000        1.0080           0
     13515 WT1      4317     TIP3     H2       HT       0.417000        1.0080           0
     13516 WT1      4318     TIP3     OH2      OT      -0.834000       15.9994           0
     13517 WT1      4318     TIP3     H1       HT       0.417000        1.0080           0
     13518 WT1      4318     TIP3     H2       HT       0.417000        1.0080           0
     13519 WT1      4319     TIP3     OH2      OT      -0.834000       15.9994           0
     13520 WT1      4319     TIP3     H1       HT       0.417000        1.0080           0
     13521 WT1      4319     TIP3     H2       HT       0.417000        1.0080           0
     13522 WT1      4320     TIP3     OH2      OT      -0.834000       15.9994           0
     13523 WT1      4320     TIP3     H1       HT       0.417000        1.0080           0
     13524 WT1      4320     TIP3     H2       HT       0.417000        1.0080           0
     13525 WT1      4321     TIP3     OH2      OT      -0.834000       15.9994           0
     13526 WT1      4321     TIP3     H1       HT       0.417000        1.0080           0
     13527 WT1      4321     TIP3     H2       HT       0.417000        1.0080           0
     13528 WT1      4322     TIP3     OH2      OT      -0.834000       15.9994           0
     13529 WT1      4322     TIP3     H1       HT       0.417000        1.0080           0
     13530 WT1      4322     TIP3     H2       HT       0.417000        1.0080           0
     13531 WT1      4323     TIP3     OH2      OT      -0.834000       15.9994           0
     13532 WT1      4323     TIP3     H1       HT       0.417000        1.0080           0
     13533 WT1      4323     TIP3     H2       HT       0.417000        1.0080           0
     13534 WT1      4324     TIP3     OH2      OT      -0.834000       15.9994           0
     13535 WT1      4324     TIP3     H1       HT       0.417000        1.0080           0
     13536 WT1      4324     TIP3     H2       HT       0.417000        1.0080           0
     13537 WT1      4325     TIP3     OH2      OT      -0.834000       15.9994           0
     13538 WT1      4325     TIP3     H1       HT       0.417000        1.0080           0
     13539 WT1      4325     TIP3     H2       HT       0.417000        1.0080           0
     13540 WT1      4326     TIP3     OH2      OT      -0.834000       15.9994           0
     13541 WT1      4326     TIP3     H1       HT       0.417000        1.0080           0
     13542 WT1      4326     TIP3     H2       HT       0.417000        1.0080           0
     13543 WT1      4327     TIP3     OH2      OT      -0.834000       15.9994           0
     13544 WT1      4327     TIP3     H1       HT       0.417000        1.0080           0
     13545 WT1      4327     TIP3     H2       HT       0.417000        1.0080           0
     13546 WT1      4328     TIP3     OH2      OT      -0.834000       15.9994           0
     13547 WT1      4328     TIP3     H1       HT       0.417000        1.0080           0
     13548 WT1      4328     TIP3     H2       HT       0.417000        1.0080           0
     13549 WT1      4329     TIP3     OH2      OT      -0.834000       15.9994           0
     13550 WT1      4329     TIP3     H1       HT       0.417000        1.0080           0
     13551 WT1      4329     TIP3     H2       HT       0.417000        1.0080           0
     13552 WT1      4330     TIP3     OH2      OT      -0.834000       15.9994           0
     13553 WT1      4330     TIP3     H1       HT       0.417000        1.0080           0
     13554 WT1      4330     TIP3     H2       HT       0.417000        1.0080           0
     13555 WT1      4331     TIP3     OH2      OT      -0.834000       15.9994           0
     13556 WT1      4331     TIP3     H1       HT       0.417000        1.0080           0
     13557 WT1      4331     TIP3     H2       HT       0.417000        1.0080           0
     13558 WT1      4332     TIP3     OH2      OT      -0.834000       15.9994           0
     13559 WT1      4332     TIP3     H1       HT       0.417000        1.0080           0
     13560 WT1      4332     TIP3     H2       HT       0.417000        1.0080           0
     13561 WT1      4333     TIP3     OH2      OT      -0.834000       15.9994           0
     13562 WT1      4333     TIP3     H1       HT       0.417000        1.0080           0
     13563 WT1      4333     TIP3     H2       HT       0.417000        1.0080           0
     13564 WT1      4334     TIP3     OH2      OT      -0.834000       15.9994           0
     13565 WT1      4334     TIP3     H1       HT       0.417000        1.0080           0
     13566 WT1      4334     TIP3     H2       HT       0.417000        1.0080           0
     13567 WT1      4335     TIP3     OH2      OT      -0.834000       15.9994           0
     13568 WT1      4335     TIP3     H1       HT       0.417000        1.0080           0
     13569 WT1      4335     TIP3     H2       HT       0.417000        1.0080           0
     13570 WT1      4336     TIP3     OH2      OT      -0.834000       15.9994           0
     13571 WT1      4336     TIP3     H1       HT       0.417000        1.0080           0
     13572 WT1      4336     TIP3     H2       HT       0.417000        1.0080           0
     13573 WT1      4337     TIP3     OH2      OT      -0.834000       15.9994           0
     13574 WT1      4337     TIP3     H1       HT       0.417000        1.0080           0
     13575 WT1      4337     TIP3     H2       HT       0.417000        1.0080           0
     13576 WT1      4338     TIP3     OH2      OT      -0.834000       15.9994           0
     13577 WT1      4338     TIP3     H1       HT       0.417000        1.0080           0
     13578 WT1      4338     TIP3     H2       HT       0.417000        1.0080           0
     13579 WT1      4339     TIP3     OH2      OT      -0.834000       15.9994           0
     13580 WT1      4339     TIP3     H1       HT       0.417000        1.0080           0
     13581 WT1      4339     TIP3     H2       HT       0.417000        1.0080           0
     13582 WT1      4340     TIP3     OH2      OT      -0.834000       15.9994           0
     13583 WT1      4340     TIP3     H1       HT       0.417000        1.0080           0
     13584 WT1      4340     TIP3     H2       HT       0.417000        1.0080           0
     13585 WT1      4341     TIP3     OH2      OT      -0.834000       15.9994           0
     13586 WT1      4341     TIP3     H1       HT       0.417000        1.0080           0
     13587 WT1      4341     TIP3     H2       HT       0.417000        1.0080           0
     13588 WT1      4342     TIP3     OH2      OT      -0.834000       15.9994           0
     13589 WT1      4342     TIP3     H1       HT       0.417000        1.0080           0
     13590 WT1      4342     TIP3     H2       HT       0.417000        1.0080           0
     13591 WT1      4343     TIP3     OH2      OT      -0.834000       15.9994           0
     13592 WT1      4343     TIP3     H1       HT       0.417000        1.0080           0
     13593 WT1      4343     TIP3     H2       HT       0.417000        1.0080           0
     13594 WT1      4344     TIP3     OH2      OT      -0.834000       15.9994           0
     13595 WT1      4344     TIP3     H1       HT       0.417000        1.0080           0
     13596 WT1      4344     TIP3     H2       HT       0.417000        1.0080           0
     13597 WT1      4345     TIP3     OH2      OT      -0.834000       15.9994           0
     13598 WT1      4345     TIP3     H1       HT       0.417000        1.0080           0
     13599 WT1      4345     TIP3     H2       HT       0.417000        1.0080           0
     13600 WT1      4346     TIP3     OH2      OT      -0.834000       15.9994           0
     13601 WT1      4346     TIP3     H1       HT       0.417000        1.0080           0
     13602 WT1      4346     TIP3     H2       HT       0.417000        1.0080           0
     13603 WT1      4347     TIP3     OH2      OT      -0.834000       15.9994           0
     13604 WT1      4347     TIP3     H1       HT       0.417000        1.0080           0
     13605 WT1      4347     TIP3     H2       HT       0.417000        1.0080           0
     13606 WT1      4348     TIP3     OH2      OT      -0.834000       15.9994           0
     13607 WT1      4348     TIP3     H1       HT       0.417000        1.0080           0
     13608 WT1      4348     TIP3     H2       HT       0.417000        1.0080           0
     13609 WT1      4349     TIP3     OH2      OT      -0.834000       15.9994           0
     13610 WT1      4349     TIP3     H1       HT       0.417000        1.0080           0
     13611 WT1      4349     TIP3     H2       HT       0.417000        1.0080           0
     13612 WT1      4350     TIP3     OH2      OT      -0.834000       15.9994           0
     13613 WT1      4350     TIP3     H1       HT       0.417000        1.0080           0
     13614 WT1      4350     TIP3     H2       HT       0.417000        1.0080           0
     13615 WT1      4351     TIP3     OH2      OT      -0.834000       15.9994           0
     13616 WT1      4351     TIP3     H1       HT       0.417000        1.0080           0
     13617 WT1      4351     TIP3     H2       HT       0.417000        1.0080           0
     13618 WT1      4352     TIP3     OH2      OT      -0.834000       15.9994           0
     13619 WT1      4352     TIP3     H1       HT       0.417000        1.0080           0
     13620 WT1      4352     TIP3     H2       HT       0.417000        1.0080           0
     13621 WT1      4353     TIP3     OH2      OT      -0.834000       15.9994           0
     13622 WT1      4353     TIP3     H1       HT       0.417000        1.0080           0
     13623 WT1      4353     TIP3     H2       HT       0.417000        1.0080           0
     13624 WT1      4354     TIP3     OH2      OT      -0.834000       15.9994           0
     13625 WT1      4354     TIP3     H1       HT       0.417000        1.0080           0
     13626 WT1      4354     TIP3     H2       HT       0.417000        1.0080           0
     13627 WT1      4355     TIP3     OH2      OT      -0.834000       15.9994           0
     13628 WT1      4355     TIP3     H1       HT       0.417000        1.0080           0
     13629 WT1      4355     TIP3     H2       HT       0.417000        1.0080           0
     13630 WT1      4356     TIP3     OH2      OT      -0.834000       15.9994           0
     13631 WT1      4356     TIP3     H1       HT       0.417000        1.0080           0
     13632 WT1      4356     TIP3     H2       HT       0.417000        1.0080           0
     13633 WT1      4357     TIP3     OH2      OT      -0.834000       15.9994           0
     13634 WT1      4357     TIP3     H1       HT       0.417000        1.0080           0
     13635 WT1      4357     TIP3     H2       HT       0.417000        1.0080           0
     13636 WT1      4358     TIP3     OH2      OT      -0.834000       15.9994           0
     13637 WT1      4358     TIP3     H1       HT       0.417000        1.0080           0
     13638 WT1      4358     TIP3     H2       HT       0.417000        1.0080           0
     13639 WT1      4359     TIP3     OH2      OT      -0.834000       15.9994           0
     13640 WT1      4359     TIP3     H1       HT       0.417000        1.0080           0
     13641 WT1      4359     TIP3     H2       HT       0.417000        1.0080           0
     13642 WT1      4360     TIP3     OH2      OT      -0.834000       15.9994           0
     13643 WT1      4360     TIP3     H1       HT       0.417000        1.0080           0
     13644 WT1      4360     TIP3     H2       HT       0.417000        1.0080           0
     13645 WT1      4361     TIP3     OH2      OT      -0.834000       15.9994           0
     13646 WT1      4361     TIP3     H1       HT       0.417000        1.0080           0
     13647 WT1      4361     TIP3     H2       HT       0.417000        1.0080           0
     13648 WT1      4362     TIP3     OH2      OT      -0.834000       15.9994           0
     13649 WT1      4362     TIP3     H1       HT       0.417000        1.0080           0
     13650 WT1      4362     TIP3     H2       HT       0.417000        1.0080           0
     13651 WT1      4363     TIP3     OH2      OT      -0.834000       15.9994           0
     13652 WT1      4363     TIP3     H1       HT       0.417000        1.0080           0
     13653 WT1      4363     TIP3     H2       HT       0.417000        1.0080           0
     13654 WT1      4364     TIP3     OH2      OT      -0.834000       15.9994           0
     13655 WT1      4364     TIP3     H1       HT       0.417000        1.0080           0
     13656 WT1      4364     TIP3     H2       HT       0.417000        1.0080           0
     13657 WT1      4365     TIP3     OH2      OT      -0.834000       15.9994           0
     13658 WT1      4365     TIP3     H1       HT       0.417000        1.0080           0
     13659 WT1      4365     TIP3     H2       HT       0.417000        1.0080           0
     13660 WT1      4366     TIP3     OH2      OT      -0.834000       15.9994           0
     13661 WT1      4366     TIP3     H1       HT       0.417000        1.0080           0
     13662 WT1      4366     TIP3     H2       HT       0.417000        1.0080           0
     13663 WT1      4367     TIP3     OH2      OT      -0.834000       15.9994           0
     13664 WT1      4367     TIP3     H1       HT       0.417000        1.0080           0
     13665 WT1      4367     TIP3     H2       HT       0.417000        1.0080           0
     13666 WT1      4368     TIP3     OH2      OT      -0.834000       15.9994           0
     13667 WT1      4368     TIP3     H1       HT       0.417000        1.0080           0
     13668 WT1      4368     TIP3     H2       HT       0.417000        1.0080           0
     13669 WT1      4369     TIP3     OH2      OT      -0.834000       15.9994           0
     13670 WT1      4369     TIP3     H1       HT       0.417000        1.0080           0
     13671 WT1      4369     TIP3     H2       HT       0.417000        1.0080           0
     13672 WT1      4370     TIP3     OH2      OT      -0.834000       15.9994           0
     13673 WT1      4370     TIP3     H1       HT       0.417000        1.0080           0
     13674 WT1      4370     TIP3     H2       HT       0.417000        1.0080           0
     13675 WT1      4371     TIP3     OH2      OT      -0.834000       15.9994           0
     13676 WT1      4371     TIP3     H1       HT       0.417000        1.0080           0
     13677 WT1      4371     TIP3     H2       HT       0.417000        1.0080           0
     13678 WT1      4372     TIP3     OH2      OT      -0.834000       15.9994           0
     13679 WT1      4372     TIP3     H1       HT       0.417000        1.0080           0
     13680 WT1      4372     TIP3     H2       HT       0.417000        1.0080           0
     13681 WT1      4373     TIP3     OH2      OT      -0.834000       15.9994           0
     13682 WT1      4373     TIP3     H1       HT       0.417000        1.0080           0
     13683 WT1      4373     TIP3     H2       HT       0.417000        1.0080           0
     13684 WT1      4374     TIP3     OH2      OT      -0.834000       15.9994           0
     13685 WT1      4374     TIP3     H1       HT       0.417000        1.0080           0
     13686 WT1      4374     TIP3     H2       HT       0.417000        1.0080           0
     13687 WT1      4375     TIP3     OH2      OT      -0.834000       15.9994           0
     13688 WT1      4375     TIP3     H1       HT       0.417000        1.0080           0
     13689 WT1      4375     TIP3     H2       HT       0.417000        1.0080           0
     13690 WT1      4376     TIP3     OH2      OT      -0.834000       15.9994           0
     13691 WT1      4376     TIP3     H1       HT       0.417000        1.0080           0
     13692 WT1      4376     TIP3     H2       HT       0.417000        1.0080           0
     13693 WT1      4377     TIP3     OH2      OT      -0.834000       15.9994           0
     13694 WT1      4377     TIP3     H1       HT       0.417000        1.0080           0
     13695 WT1      4377     TIP3     H2       HT       0.417000        1.0080           0
     13696 WT1      4378     TIP3     OH2      OT      -0.834000       15.9994           0
     13697 WT1      4378     TIP3     H1       HT       0.417000        1.0080           0
     13698 WT1      4378     TIP3     H2       HT       0.417000        1.0080           0
     13699 WT1      4379     TIP3     OH2      OT      -0.834000       15.9994           0
     13700 WT1      4379     TIP3     H1       HT       0.417000        1.0080           0
     13701 WT1      4379     TIP3     H2       HT       0.417000        1.0080           0
     13702 WT1      4380     TIP3     OH2      OT      -0.834000       15.9994           0
     13703 WT1      4380     TIP3     H1       HT       0.417000        1.0080           0
     13704 WT1      4380     TIP3     H2       HT       0.417000        1.0080           0
     13705 WT1      4381     TIP3     OH2      OT      -0.834000       15.9994           0
     13706 WT1      4381     TIP3     H1       HT       0.417000        1.0080           0
     13707 WT1      4381     TIP3     H2       HT       0.417000        1.0080           0
     13708 WT1      4382     TIP3     OH2      OT      -0.834000       15.9994           0
     13709 WT1      4382     TIP3     H1       HT       0.417000        1.0080           0
     13710 WT1      4382     TIP3     H2       HT       0.417000        1.0080           0
     13711 WT1      4383     TIP3     OH2      OT      -0.834000       15.9994           0
     13712 WT1      4383     TIP3     H1       HT       0.417000        1.0080           0
     13713 WT1      4383     TIP3     H2       HT       0.417000        1.0080           0
     13714 WT1      4384     TIP3     OH2      OT      -0.834000       15.9994           0
     13715 WT1      4384     TIP3     H1       HT       0.417000        1.0080           0
     13716 WT1      4384     TIP3     H2       HT       0.417000        1.0080           0
     13717 WT1      4385     TIP3     OH2      OT      -0.834000       15.9994           0
     13718 WT1      4385     TIP3     H1       HT       0.417000        1.0080           0
     13719 WT1      4385     TIP3     H2       HT       0.417000        1.0080           0
     13720 WT1      4386     TIP3     OH2      OT      -0.834000       15.9994           0
     13721 WT1      4386     TIP3     H1       HT       0.417000        1.0080           0
     13722 WT1      4386     TIP3     H2       HT       0.417000        1.0080           0
     13723 WT1      4387     TIP3     OH2      OT      -0.834000       15.9994           0
     13724 WT1      4387     TIP3     H1       HT       0.417000        1.0080           0
     13725 WT1      4387     TIP3     H2       HT       0.417000        1.0080           0
     13726 WT1      4388     TIP3     OH2      OT      -0.834000       15.9994           0
     13727 WT1      4388     TIP3     H1       HT       0.417000        1.0080           0
     13728 WT1      4388     TIP3     H2       HT       0.417000        1.0080           0
     13729 WT1      4389     TIP3     OH2      OT      -0.834000       15.9994           0
     13730 WT1      4389     TIP3     H1       HT       0.417000        1.0080           0
     13731 WT1      4389     TIP3     H2       HT       0.417000        1.0080           0
     13732 WT1      4390     TIP3     OH2      OT      -0.834000       15.9994           0
     13733 WT1      4390     TIP3     H1       HT       0.417000        1.0080           0
     13734 WT1      4390     TIP3     H2       HT       0.417000        1.0080           0
     13735 WT1      4391     TIP3     OH2      OT      -0.834000       15.9994           0
     13736 WT1      4391     TIP3     H1       HT       0.417000        1.0080           0
     13737 WT1      4391     TIP3     H2       HT       0.417000        1.0080           0
     13738 WT1      4392     TIP3     OH2      OT      -0.834000       15.9994           0
     13739 WT1      4392     TIP3     H1       HT       0.417000        1.0080           0
     13740 WT1      4392     TIP3     H2       HT       0.417000        1.0080           0
     13741 WT1      4393     TIP3     OH2      OT      -0.834000       15.9994           0
     13742 WT1      4393     TIP3     H1       HT       0.417000        1.0080           0
     13743 WT1      4393     TIP3     H2       HT       0.417000        1.0080           0
     13744 WT1      4394     TIP3     OH2      OT      -0.834000       15.9994           0
     13745 WT1      4394     TIP3     H1       HT       0.417000        1.0080           0
     13746 WT1      4394     TIP3     H2       HT       0.417000        1.0080           0
     13747 WT1      4395     TIP3     OH2      OT      -0.834000       15.9994           0
     13748 WT1      4395     TIP3     H1       HT       0.417000        1.0080           0
     13749 WT1      4395     TIP3     H2       HT       0.417000        1.0080           0
     13750 WT1      4396     TIP3     OH2      OT      -0.834000       15.9994           0
     13751 WT1      4396     TIP3     H1       HT       0.417000        1.0080           0
     13752 WT1      4396     TIP3     H2       HT       0.417000        1.0080           0
     13753 WT1      4397     TIP3     OH2      OT      -0.834000       15.9994           0
     13754 WT1      4397     TIP3     H1       HT       0.417000        1.0080           0
     13755 WT1      4397     TIP3     H2       HT       0.417000        1.0080           0
     13756 WT1      4398     TIP3     OH2      OT      -0.834000       15.9994           0
     13757 WT1      4398     TIP3     H1       HT       0.417000        1.0080           0
     13758 WT1      4398     TIP3     H2       HT       0.417000        1.0080           0
     13759 WT1      4399     TIP3     OH2      OT      -0.834000       15.9994           0
     13760 WT1      4399     TIP3     H1       HT       0.417000        1.0080           0
     13761 WT1      4399     TIP3     H2       HT       0.417000        1.0080           0
     13762 WT1      4400     TIP3     OH2      OT      -0.834000       15.9994           0
     13763 WT1      4400     TIP3     H1       HT       0.417000        1.0080           0
     13764 WT1      4400     TIP3     H2       HT       0.417000        1.0080           0
     13765 WT1      4401     TIP3     OH2      OT      -0.834000       15.9994           0
     13766 WT1      4401     TIP3     H1       HT       0.417000        1.0080           0
     13767 WT1      4401     TIP3     H2       HT       0.417000        1.0080           0
     13768 WT1      4402     TIP3     OH2      OT      -0.834000       15.9994           0
     13769 WT1      4402     TIP3     H1       HT       0.417000        1.0080           0
     13770 WT1      4402     TIP3     H2       HT       0.417000        1.0080           0
     13771 WT1      4403     TIP3     OH2      OT      -0.834000       15.9994           0
     13772 WT1      4403     TIP3     H1       HT       0.417000        1.0080           0
     13773 WT1      4403     TIP3     H2       HT       0.417000        1.0080           0
     13774 WT1      4404     TIP3     OH2      OT      -0.834000       15.9994           0
     13775 WT1      4404     TIP3     H1       HT       0.417000        1.0080           0
     13776 WT1      4404     TIP3     H2       HT       0.417000        1.0080           0
     13777 WT1      4405     TIP3     OH2      OT      -0.834000       15.9994           0
     13778 WT1      4405     TIP3     H1       HT       0.417000        1.0080           0
     13779 WT1      4405     TIP3     H2       HT       0.417000        1.0080           0
     13780 WT1      4406     TIP3     OH2      OT      -0.834000       15.9994           0
     13781 WT1      4406     TIP3     H1       HT       0.417000        1.0080           0
     13782 WT1      4406     TIP3     H2       HT       0.417000        1.0080           0
     13783 WT1      4407     TIP3     OH2      OT      -0.834000       15.9994           0
     13784 WT1      4407     TIP3     H1       HT       0.417000        1.0080           0
     13785 WT1      4407     TIP3     H2       HT       0.417000        1.0080           0
     13786 WT1      4408     TIP3     OH2      OT      -0.834000       15.9994           0
     13787 WT1      4408     TIP3     H1       HT       0.417000        1.0080           0
     13788 WT1      4408     TIP3     H2       HT       0.417000        1.0080           0
     13789 WT1      4409     TIP3     OH2      OT      -0.834000       15.9994           0
     13790 WT1      4409     TIP3     H1       HT       0.417000        1.0080           0
     13791 WT1      4409     TIP3     H2       HT       0.417000        1.0080           0
     13792 WT1      4410     TIP3     OH2      OT      -0.834000       15.9994           0
     13793 WT1      4410     TIP3     H1       HT       0.417000        1.0080           0
     13794 WT1      4410     TIP3     H2       HT       0.417000        1.0080           0
     13795 WT1      4411     TIP3     OH2      OT      -0.834000       15.9994           0
     13796 WT1      4411     TIP3     H1       HT       0.417000        1.0080           0
     13797 WT1      4411     TIP3     H2       HT       0.417000        1.0080           0
     13798 WT1      4412     TIP3     OH2      OT      -0.834000       15.9994           0
     13799 WT1      4412     TIP3     H1       HT       0.417000        1.0080           0
     13800 WT1      4412     TIP3     H2       HT       0.417000        1.0080           0
     13801 WT1      4413     TIP3     OH2      OT      -0.834000       15.9994           0
     13802 WT1      4413     TIP3     H1       HT       0.417000        1.0080           0
     13803 WT1      4413     TIP3     H2       HT       0.417000        1.0080           0
     13804 WT1      4414     TIP3     OH2      OT      -0.834000       15.9994           0
     13805 WT1      4414     TIP3     H1       HT       0.417000        1.0080           0
     13806 WT1      4414     TIP3     H2       HT       0.417000        1.0080           0
     13807 WT1      4415     TIP3     OH2      OT      -0.834000       15.9994           0
     13808 WT1      4415     TIP3     H1       HT       0.417000        1.0080           0
     13809 WT1      4415     TIP3     H2       HT       0.417000        1.0080           0
     13810 WT1      4416     TIP3     OH2      OT      -0.834000       15.9994           0
     13811 WT1      4416     TIP3     H1       HT       0.417000        1.0080           0
     13812 WT1      4416     TIP3     H2       HT       0.417000        1.0080           0
     13813 WT1      4417     TIP3     OH2      OT      -0.834000       15.9994           0
     13814 WT1      4417     TIP3     H1       HT       0.417000        1.0080           0
     13815 WT1      4417     TIP3     H2       HT       0.417000        1.0080           0
     13816 WT1      4418     TIP3     OH2      OT      -0.834000       15.9994           0
     13817 WT1      4418     TIP3     H1       HT       0.417000        1.0080           0
     13818 WT1      4418     TIP3     H2       HT       0.417000        1.0080           0
     13819 WT1      4419     TIP3     OH2      OT      -0.834000       15.9994           0
     13820 WT1      4419     TIP3     H1       HT       0.417000        1.0080           0
     13821 WT1      4419     TIP3     H2       HT       0.417000        1.0080           0
     13822 WT1      4421     TIP3     OH2      OT      -0.834000       15.9994           0
     13823 WT1      4421     TIP3     H1       HT       0.417000        1.0080           0
     13824 WT1      4421     TIP3     H2       HT       0.417000        1.0080           0
     13825 WT1      4422     TIP3     OH2      OT      -0.834000       15.9994           0
     13826 WT1      4422     TIP3     H1       HT       0.417000        1.0080           0
     13827 WT1      4422     TIP3     H2       HT       0.417000        1.0080           0
     13828 WT1      4423     TIP3     OH2      OT      -0.834000       15.9994           0
     13829 WT1      4423     TIP3     H1       HT       0.417000        1.0080           0
     13830 WT1      4423     TIP3     H2       HT       0.417000        1.0080           0
     13831 WT1      4424     TIP3     OH2      OT      -0.834000       15.9994           0
     13832 WT1      4424     TIP3     H1       HT       0.417000        1.0080           0
     13833 WT1      4424     TIP3     H2       HT       0.417000        1.0080           0
     13834 WT1      4425     TIP3     OH2      OT      -0.834000       15.9994           0
     13835 WT1      4425     TIP3     H1       HT       0.417000        1.0080           0
     13836 WT1      4425     TIP3     H2       HT       0.417000        1.0080           0
     13837 WT1      4426     TIP3     OH2      OT      -0.834000       15.9994           0
     13838 WT1      4426     TIP3     H1       HT       0.417000        1.0080           0
     13839 WT1      4426     TIP3     H2       HT       0.417000        1.0080           0
     13840 WT1      4427     TIP3     OH2      OT      -0.834000       15.9994           0
     13841 WT1      4427     TIP3     H1       HT       0.417000        1.0080           0
     13842 WT1      4427     TIP3     H2       HT       0.417000        1.0080           0
     13843 WT1      4428     TIP3     OH2      OT      -0.834000       15.9994           0
     13844 WT1      4428     TIP3     H1       HT       0.417000        1.0080           0
     13845 WT1      4428     TIP3     H2       HT       0.417000        1.0080           0
     13846 WT1      4429     TIP3     OH2      OT      -0.834000       15.9994           0
     13847 WT1      4429     TIP3     H1       HT       0.417000        1.0080           0
     13848 WT1      4429     TIP3     H2       HT       0.417000        1.0080           0
     13849 WT1      4430     TIP3     OH2      OT      -0.834000       15.9994           0
     13850 WT1      4430     TIP3     H1       HT       0.417000        1.0080           0
     13851 WT1      4430     TIP3     H2       HT       0.417000        1.0080           0
     13852 WT1      4431     TIP3     OH2      OT      -0.834000       15.9994           0
     13853 WT1      4431     TIP3     H1       HT       0.417000        1.0080           0
     13854 WT1      4431     TIP3     H2       HT       0.417000        1.0080           0
     13855 WT1      4432     TIP3     OH2      OT      -0.834000       15.9994           0
     13856 WT1      4432     TIP3     H1       HT       0.417000        1.0080           0
     13857 WT1      4432     TIP3     H2       HT       0.417000        1.0080           0
     13858 WT1      4433     TIP3     OH2      OT      -0.834000       15.9994           0
     13859 WT1      4433     TIP3     H1       HT       0.417000        1.0080           0
     13860 WT1      4433     TIP3     H2       HT       0.417000        1.0080           0
     13861 WT1      4434     TIP3     OH2      OT      -0.834000       15.9994           0
     13862 WT1      4434     TIP3     H1       HT       0.417000        1.0080           0
     13863 WT1      4434     TIP3     H2       HT       0.417000        1.0080           0
     13864 WT1      4435     TIP3     OH2      OT      -0.834000       15.9994           0
     13865 WT1      4435     TIP3     H1       HT       0.417000        1.0080           0
     13866 WT1      4435     TIP3     H2       HT       0.417000        1.0080           0
     13867 WT1      4436     TIP3     OH2      OT      -0.834000       15.9994           0
     13868 WT1      4436     TIP3     H1       HT       0.417000        1.0080           0
     13869 WT1      4436     TIP3     H2       HT       0.417000        1.0080           0
     13870 WT1      4437     TIP3     OH2      OT      -0.834000       15.9994           0
     13871 WT1      4437     TIP3     H1       HT       0.417000        1.0080           0
     13872 WT1      4437     TIP3     H2       HT       0.417000        1.0080           0
     13873 WT1      4438     TIP3     OH2      OT      -0.834000       15.9994           0
     13874 WT1      4438     TIP3     H1       HT       0.417000        1.0080           0
     13875 WT1      4438     TIP3     H2       HT       0.417000        1.0080           0
     13876 WT1      4439     TIP3     OH2      OT      -0.834000       15.9994           0
     13877 WT1      4439     TIP3     H1       HT       0.417000        1.0080           0
     13878 WT1      4439     TIP3     H2       HT       0.417000        1.0080           0
     13879 WT1      4440     TIP3     OH2      OT      -0.834000       15.9994           0
     13880 WT1      4440     TIP3     H1       HT       0.417000        1.0080           0
     13881 WT1      4440     TIP3     H2       HT       0.417000        1.0080           0
     13882 WT1      4441     TIP3     OH2      OT      -0.834000       15.9994           0
     13883 WT1      4441     TIP3     H1       HT       0.417000        1.0080           0
     13884 WT1      4441     TIP3     H2       HT       0.417000        1.0080           0
     13885 WT1      4442     TIP3     OH2      OT      -0.834000       15.9994           0
     13886 WT1      4442     TIP3     H1       HT       0.417000        1.0080           0
     13887 WT1      4442     TIP3     H2       HT       0.417000        1.0080           0
     13888 WT1      4443     TIP3     OH2      OT      -0.834000       15.9994           0
     13889 WT1      4443     TIP3     H1       HT       0.417000        1.0080           0
     13890 WT1      4443     TIP3     H2       HT       0.417000        1.0080           0
     13891 WT1      4444     TIP3     OH2      OT      -0.834000       15.9994           0
     13892 WT1      4444     TIP3     H1       HT       0.417000        1.0080           0
     13893 WT1      4444     TIP3     H2       HT       0.417000        1.0080           0
     13894 WT1      4445     TIP3     OH2      OT      -0.834000       15.9994           0
     13895 WT1      4445     TIP3     H1       HT       0.417000        1.0080           0
     13896 WT1      4445     TIP3     H2       HT       0.417000        1.0080           0
     13897 WT1      4446     TIP3     OH2      OT      -0.834000       15.9994           0
     13898 WT1      4446     TIP3     H1       HT       0.417000        1.0080           0
     13899 WT1      4446     TIP3     H2       HT       0.417000        1.0080           0
     13900 WT1      4447     TIP3     OH2      OT      -0.834000       15.9994           0
     13901 WT1      4447     TIP3     H1       HT       0.417000        1.0080           0
     13902 WT1      4447     TIP3     H2       HT       0.417000        1.0080           0
     13903 WT1      4448     TIP3     OH2      OT      -0.834000       15.9994           0
     13904 WT1      4448     TIP3     H1       HT       0.417000        1.0080           0
     13905 WT1      4448     TIP3     H2       HT       0.417000        1.0080           0
     13906 WT1      4449     TIP3     OH2      OT      -0.834000       15.9994           0
     13907 WT1      4449     TIP3     H1       HT       0.417000        1.0080           0
     13908 WT1      4449     TIP3     H2       HT       0.417000        1.0080           0
     13909 WT1      4450     TIP3     OH2      OT      -0.834000       15.9994           0
     13910 WT1      4450     TIP3     H1       HT       0.417000        1.0080           0
     13911 WT1      4450     TIP3     H2       HT       0.417000        1.0080           0
     13912 WT1      4451     TIP3     OH2      OT      -0.834000       15.9994           0
     13913 WT1      4451     TIP3     H1       HT       0.417000        1.0080           0
     13914 WT1      4451     TIP3     H2       HT       0.417000        1.0080           0
     13915 WT1      4452     TIP3     OH2      OT      -0.834000       15.9994           0
     13916 WT1      4452     TIP3     H1       HT       0.417000        1.0080           0
     13917 WT1      4452     TIP3     H2       HT       0.417000        1.0080           0
     13918 WT1      4453     TIP3     OH2      OT      -0.834000       15.9994           0
     13919 WT1      4453     TIP3     H1       HT       0.417000        1.0080           0
     13920 WT1      4453     TIP3     H2       HT       0.417000        1.0080           0
     13921 WT1      4454     TIP3     OH2      OT      -0.834000       15.9994           0
     13922 WT1      4454     TIP3     H1       HT       0.417000        1.0080           0
     13923 WT1      4454     TIP3     H2       HT       0.417000        1.0080           0
     13924 WT1      4455     TIP3     OH2      OT      -0.834000       15.9994           0
     13925 WT1      4455     TIP3     H1       HT       0.417000        1.0080           0
     13926 WT1      4455     TIP3     H2       HT       0.417000        1.0080           0
     13927 WT1      4456     TIP3     OH2      OT      -0.834000       15.9994           0
     13928 WT1      4456     TIP3     H1       HT       0.417000        1.0080           0
     13929 WT1      4456     TIP3     H2       HT       0.417000        1.0080           0
     13930 WT1      4457     TIP3     OH2      OT      -0.834000       15.9994           0
     13931 WT1      4457     TIP3     H1       HT       0.417000        1.0080           0
     13932 WT1      4457     TIP3     H2       HT       0.417000        1.0080           0
     13933 WT1      4458     TIP3     OH2      OT      -0.834000       15.9994           0
     13934 WT1      4458     TIP3     H1       HT       0.417000        1.0080           0
     13935 WT1      4458     TIP3     H2       HT       0.417000        1.0080           0
     13936 WT1      4459     TIP3     OH2      OT      -0.834000       15.9994           0
     13937 WT1      4459     TIP3     H1       HT       0.417000        1.0080           0
     13938 WT1      4459     TIP3     H2       HT       0.417000        1.0080           0
     13939 WT1      4460     TIP3     OH2      OT      -0.834000       15.9994           0
     13940 WT1      4460     TIP3     H1       HT       0.417000        1.0080           0
     13941 WT1      4460     TIP3     H2       HT       0.417000        1.0080           0
     13942 WT1      4461     TIP3     OH2      OT      -0.834000       15.9994           0
     13943 WT1      4461     TIP3     H1       HT       0.417000        1.0080           0
     13944 WT1      4461     TIP3     H2       HT       0.417000        1.0080           0
     13945 WT1      4462     TIP3     OH2      OT      -0.834000       15.9994           0
     13946 WT1      4462     TIP3     H1       HT       0.417000        1.0080           0
     13947 WT1      4462     TIP3     H2       HT       0.417000        1.0080           0
     13948 WT1      4463     TIP3     OH2      OT      -0.834000       15.9994           0
     13949 WT1      4463     TIP3     H1       HT       0.417000        1.0080           0
     13950 WT1      4463     TIP3     H2       HT       0.417000        1.0080           0
     13951 WT1      4464     TIP3     OH2      OT      -0.834000       15.9994           0
     13952 WT1      4464     TIP3     H1       HT       0.417000        1.0080           0
     13953 WT1      4464     TIP3     H2       HT       0.417000        1.0080           0
     13954 WT1      4465     TIP3     OH2      OT      -0.834000       15.9994           0
     13955 WT1      4465     TIP3     H1       HT       0.417000        1.0080           0
     13956 WT1      4465     TIP3     H2       HT       0.417000        1.0080           0
     13957 WT1      4466     TIP3     OH2      OT      -0.834000       15.9994           0
     13958 WT1      4466     TIP3     H1       HT       0.417000        1.0080           0
     13959 WT1      4466     TIP3     H2       HT       0.417000        1.0080           0
     13960 WT1      4467     TIP3     OH2      OT      -0.834000       15.9994           0
     13961 WT1      4467     TIP3     H1       HT       0.417000        1.0080           0
     13962 WT1      4467     TIP3     H2       HT       0.417000        1.0080           0
     13963 WT1      4468     TIP3     OH2      OT      -0.834000       15.9994           0
     13964 WT1      4468     TIP3     H1       HT       0.417000        1.0080           0
     13965 WT1      4468     TIP3     H2       HT       0.417000        1.0080           0
     13966 WT1      4469     TIP3     OH2      OT      -0.834000       15.9994           0
     13967 WT1      4469     TIP3     H1       HT       0.417000        1.0080           0
     13968 WT1      4469     TIP3     H2       HT       0.417000        1.0080           0
     13969 WT1      4470     TIP3     OH2      OT      -0.834000       15.9994           0
     13970 WT1      4470     TIP3     H1       HT       0.417000        1.0080           0
     13971 WT1      4470     TIP3     H2       HT       0.417000        1.0080           0
     13972 WT1      4471     TIP3     OH2      OT      -0.834000       15.9994           0
     13973 WT1      4471     TIP3     H1       HT       0.417000        1.0080           0
     13974 WT1      4471     TIP3     H2       HT       0.417000        1.0080           0
     13975 WT1      4472     TIP3     OH2      OT      -0.834000       15.9994           0
     13976 WT1      4472     TIP3     H1       HT       0.417000        1.0080           0
     13977 WT1      4472     TIP3     H2       HT       0.417000        1.0080           0
     13978 WT1      4473     TIP3     OH2      OT      -0.834000       15.9994           0
     13979 WT1      4473     TIP3     H1       HT       0.417000        1.0080           0
     13980 WT1      4473     TIP3     H2       HT       0.417000        1.0080           0
     13981 WT1      4474     TIP3     OH2      OT      -0.834000       15.9994           0
     13982 WT1      4474     TIP3     H1       HT       0.417000        1.0080           0
     13983 WT1      4474     TIP3     H2       HT       0.417000        1.0080           0
     13984 WT1      4475     TIP3     OH2      OT      -0.834000       15.9994           0
     13985 WT1      4475     TIP3     H1       HT       0.417000        1.0080           0
     13986 WT1      4475     TIP3     H2       HT       0.417000        1.0080           0
     13987 WT1      4476     TIP3     OH2      OT      -0.834000       15.9994           0
     13988 WT1      4476     TIP3     H1       HT       0.417000        1.0080           0
     13989 WT1      4476     TIP3     H2       HT       0.417000        1.0080           0
     13990 WT1      4477     TIP3     OH2      OT      -0.834000       15.9994           0
     13991 WT1      4477     TIP3     H1       HT       0.417000        1.0080           0
     13992 WT1      4477     TIP3     H2       HT       0.417000        1.0080           0
     13993 WT1      4478     TIP3     OH2      OT      -0.834000       15.9994           0
     13994 WT1      4478     TIP3     H1       HT       0.417000        1.0080           0
     13995 WT1      4478     TIP3     H2       HT       0.417000        1.0080           0
     13996 WT1      4479     TIP3     OH2      OT      -0.834000       15.9994           0
     13997 WT1      4479     TIP3     H1       HT       0.417000        1.0080           0
     13998 WT1      4479     TIP3     H2       HT       0.417000        1.0080           0
     13999 WT1      4480     TIP3     OH2      OT      -0.834000       15.9994           0
     14000 WT1      4480     TIP3     H1       HT       0.417000        1.0080           0
     14001 WT1      4480     TIP3     H2       HT       0.417000        1.0080           0
     14002 WT1      4481     TIP3     OH2      OT      -0.834000       15.9994           0
     14003 WT1      4481     TIP3     H1       HT       0.417000        1.0080           0
     14004 WT1      4481     TIP3     H2       HT       0.417000        1.0080           0
     14005 WT1      4482     TIP3     OH2      OT      -0.834000       15.9994           0
     14006 WT1      4482     TIP3     H1       HT       0.417000        1.0080           0
     14007 WT1      4482     TIP3     H2       HT       0.417000        1.0080           0
     14008 WT1      4483     TIP3     OH2      OT      -0.834000       15.9994           0
     14009 WT1      4483     TIP3     H1       HT       0.417000        1.0080           0
     14010 WT1      4483     TIP3     H2       HT       0.417000        1.0080           0
     14011 WT1      4484     TIP3     OH2      OT      -0.834000       15.9994           0
     14012 WT1      4484     TIP3     H1       HT       0.417000        1.0080           0
     14013 WT1      4484     TIP3     H2       HT       0.417000        1.0080           0
     14014 WT1      4485     TIP3     OH2      OT      -0.834000       15.9994           0
     14015 WT1      4485     TIP3     H1       HT       0.417000        1.0080           0
     14016 WT1      4485     TIP3     H2       HT       0.417000        1.0080           0
     14017 WT1      4486     TIP3     OH2      OT      -0.834000       15.9994           0
     14018 WT1      4486     TIP3     H1       HT       0.417000        1.0080           0
     14019 WT1      4486     TIP3     H2       HT       0.417000        1.0080           0
     14020 WT1      4487     TIP3     OH2      OT      -0.834000       15.9994           0
     14021 WT1      4487     TIP3     H1       HT       0.417000        1.0080           0
     14022 WT1      4487     TIP3     H2       HT       0.417000        1.0080           0
     14023 WT1      4488     TIP3     OH2      OT      -0.834000       15.9994           0
     14024 WT1      4488     TIP3     H1       HT       0.417000        1.0080           0
     14025 WT1      4488     TIP3     H2       HT       0.417000        1.0080           0
     14026 WT1      4489     TIP3     OH2      OT      -0.834000       15.9994           0
     14027 WT1      4489     TIP3     H1       HT       0.417000        1.0080           0
     14028 WT1      4489     TIP3     H2       HT       0.417000        1.0080           0
     14029 WT1      4490     TIP3     OH2      OT      -0.834000       15.9994           0
     14030 WT1      4490     TIP3     H1       HT       0.417000        1.0080           0
     14031 WT1      4490     TIP3     H2       HT       0.417000        1.0080           0
     14032 WT1      4491     TIP3     OH2      OT      -0.834000       15.9994           0
     14033 WT1      4491     TIP3     H1       HT       0.417000        1.0080           0
     14034 WT1      4491     TIP3     H2       HT       0.417000        1.0080           0
     14035 WT1      4492     TIP3     OH2      OT      -0.834000       15.9994           0
     14036 WT1      4492     TIP3     H1       HT       0.417000        1.0080           0
     14037 WT1      4492     TIP3     H2       HT       0.417000        1.0080           0
     14038 WT1      4493     TIP3     OH2      OT      -0.834000       15.9994           0
     14039 WT1      4493     TIP3     H1       HT       0.417000        1.0080           0
     14040 WT1      4493     TIP3     H2       HT       0.417000        1.0080           0
     14041 WT1      4494     TIP3     OH2      OT      -0.834000       15.9994           0
     14042 WT1      4494     TIP3     H1       HT       0.417000        1.0080           0
     14043 WT1      4494     TIP3     H2       HT       0.417000        1.0080           0
     14044 WT1      4495     TIP3     OH2      OT      -0.834000       15.9994           0
     14045 WT1      4495     TIP3     H1       HT       0.417000        1.0080           0
     14046 WT1      4495     TIP3     H2       HT       0.417000        1.0080           0
     14047 WT1      4496     TIP3     OH2      OT      -0.834000       15.9994           0
     14048 WT1      4496     TIP3     H1       HT       0.417000        1.0080           0
     14049 WT1      4496     TIP3     H2       HT       0.417000        1.0080           0
     14050 WT1      4497     TIP3     OH2      OT      -0.834000       15.9994           0
     14051 WT1      4497     TIP3     H1       HT       0.417000        1.0080           0
     14052 WT1      4497     TIP3     H2       HT       0.417000        1.0080           0
     14053 WT1      4498     TIP3     OH2      OT      -0.834000       15.9994           0
     14054 WT1      4498     TIP3     H1       HT       0.417000        1.0080           0
     14055 WT1      4498     TIP3     H2       HT       0.417000        1.0080           0
     14056 WT1      4499     TIP3     OH2      OT      -0.834000       15.9994           0
     14057 WT1      4499     TIP3     H1       HT       0.417000        1.0080           0
     14058 WT1      4499     TIP3     H2       HT       0.417000        1.0080           0
     14059 WT1      4500     TIP3     OH2      OT      -0.834000       15.9994           0
     14060 WT1      4500     TIP3     H1       HT       0.417000        1.0080           0
     14061 WT1      4500     TIP3     H2       HT       0.417000        1.0080           0
     14062 WT1      4501     TIP3     OH2      OT      -0.834000       15.9994           0
     14063 WT1      4501     TIP3     H1       HT       0.417000        1.0080           0
     14064 WT1      4501     TIP3     H2       HT       0.417000        1.0080           0
     14065 WT1      4502     TIP3     OH2      OT      -0.834000       15.9994           0
     14066 WT1      4502     TIP3     H1       HT       0.417000        1.0080           0
     14067 WT1      4502     TIP3     H2       HT       0.417000        1.0080           0
     14068 WT1      4503     TIP3     OH2      OT      -0.834000       15.9994           0
     14069 WT1      4503     TIP3     H1       HT       0.417000        1.0080           0
     14070 WT1      4503     TIP3     H2       HT       0.417000        1.0080           0
     14071 WT1      4504     TIP3     OH2      OT      -0.834000       15.9994           0
     14072 WT1      4504     TIP3     H1       HT       0.417000        1.0080           0
     14073 WT1      4504     TIP3     H2       HT       0.417000        1.0080           0
     14074 WT1      4505     TIP3     OH2      OT      -0.834000       15.9994           0
     14075 WT1      4505     TIP3     H1       HT       0.417000        1.0080           0
     14076 WT1      4505     TIP3     H2       HT       0.417000        1.0080           0
     14077 WT1      4506     TIP3     OH2      OT      -0.834000       15.9994           0
     14078 WT1      4506     TIP3     H1       HT       0.417000        1.0080           0
     14079 WT1      4506     TIP3     H2       HT       0.417000        1.0080           0
     14080 WT1      4507     TIP3     OH2      OT      -0.834000       15.9994           0
     14081 WT1      4507     TIP3     H1       HT       0.417000        1.0080           0
     14082 WT1      4507     TIP3     H2       HT       0.417000        1.0080           0
     14083 WT1      4508     TIP3     OH2      OT      -0.834000       15.9994           0
     14084 WT1      4508     TIP3     H1       HT       0.417000        1.0080           0
     14085 WT1      4508     TIP3     H2       HT       0.417000        1.0080           0
     14086 WT1      4509     TIP3     OH2      OT      -0.834000       15.9994           0
     14087 WT1      4509     TIP3     H1       HT       0.417000        1.0080           0
     14088 WT1      4509     TIP3     H2       HT       0.417000        1.0080           0
     14089 WT1      4510     TIP3     OH2      OT      -0.834000       15.9994           0
     14090 WT1      4510     TIP3     H1       HT       0.417000        1.0080           0
     14091 WT1      4510     TIP3     H2       HT       0.417000        1.0080           0
     14092 WT1      4511     TIP3     OH2      OT      -0.834000       15.9994           0
     14093 WT1      4511     TIP3     H1       HT       0.417000        1.0080           0
     14094 WT1      4511     TIP3     H2       HT       0.417000        1.0080           0
     14095 WT1      4512     TIP3     OH2      OT      -0.834000       15.9994           0
     14096 WT1      4512     TIP3     H1       HT       0.417000        1.0080           0
     14097 WT1      4512     TIP3     H2       HT       0.417000        1.0080           0
     14098 WT1      4513     TIP3     OH2      OT      -0.834000       15.9994           0
     14099 WT1      4513     TIP3     H1       HT       0.417000        1.0080           0
     14100 WT1      4513     TIP3     H2       HT       0.417000        1.0080           0
     14101 WT1      4514     TIP3     OH2      OT      -0.834000       15.9994           0
     14102 WT1      4514     TIP3     H1       HT       0.417000        1.0080           0
     14103 WT1      4514     TIP3     H2       HT       0.417000        1.0080           0
     14104 WT1      4515     TIP3     OH2      OT      -0.834000       15.9994           0
     14105 WT1      4515     TIP3     H1       HT       0.417000        1.0080           0
     14106 WT1      4515     TIP3     H2       HT       0.417000        1.0080           0
     14107 WT1      4516     TIP3     OH2      OT      -0.834000       15.9994           0
     14108 WT1      4516     TIP3     H1       HT       0.417000        1.0080           0
     14109 WT1      4516     TIP3     H2       HT       0.417000        1.0080           0
     14110 WT1      4517     TIP3     OH2      OT      -0.834000       15.9994           0
     14111 WT1      4517     TIP3     H1       HT       0.417000        1.0080           0
     14112 WT1      4517     TIP3     H2       HT       0.417000        1.0080           0
     14113 WT1      4518     TIP3     OH2      OT      -0.834000       15.9994           0
     14114 WT1      4518     TIP3     H1       HT       0.417000        1.0080           0
     14115 WT1      4518     TIP3     H2       HT       0.417000        1.0080           0
     14116 WT1      4519     TIP3     OH2      OT      -0.834000       15.9994           0
     14117 WT1      4519     TIP3     H1       HT       0.417000        1.0080           0
     14118 WT1      4519     TIP3     H2       HT       0.417000        1.0080           0
     14119 WT1      4520     TIP3     OH2      OT      -0.834000       15.9994           0
     14120 WT1      4520     TIP3     H1       HT       0.417000        1.0080           0
     14121 WT1      4520     TIP3     H2       HT       0.417000        1.0080           0
     14122 WT1      4521     TIP3     OH2      OT      -0.834000       15.9994           0
     14123 WT1      4521     TIP3     H1       HT       0.417000        1.0080           0
     14124 WT1      4521     TIP3     H2       HT       0.417000        1.0080           0
     14125 WT1      4522     TIP3     OH2      OT      -0.834000       15.9994           0
     14126 WT1      4522     TIP3     H1       HT       0.417000        1.0080           0
     14127 WT1      4522     TIP3     H2       HT       0.417000        1.0080           0
     14128 WT1      4523     TIP3     OH2      OT      -0.834000       15.9994           0
     14129 WT1      4523     TIP3     H1       HT       0.417000        1.0080           0
     14130 WT1      4523     TIP3     H2       HT       0.417000        1.0080           0
     14131 WT1      4524     TIP3     OH2      OT      -0.834000       15.9994           0
     14132 WT1      4524     TIP3     H1       HT       0.417000        1.0080           0
     14133 WT1      4524     TIP3     H2       HT       0.417000        1.0080           0
     14134 WT1      4525     TIP3     OH2      OT      -0.834000       15.9994           0
     14135 WT1      4525     TIP3     H1       HT       0.417000        1.0080           0
     14136 WT1      4525     TIP3     H2       HT       0.417000        1.0080           0
     14137 WT1      4526     TIP3     OH2      OT      -0.834000       15.9994           0
     14138 WT1      4526     TIP3     H1       HT       0.417000        1.0080           0
     14139 WT1      4526     TIP3     H2       HT       0.417000        1.0080           0
     14140 WT1      4527     TIP3     OH2      OT      -0.834000       15.9994           0
     14141 WT1      4527     TIP3     H1       HT       0.417000        1.0080           0
     14142 WT1      4527     TIP3     H2       HT       0.417000        1.0080           0
     14143 WT1      4528     TIP3     OH2      OT      -0.834000       15.9994           0
     14144 WT1      4528     TIP3     H1       HT       0.417000        1.0080           0
     14145 WT1      4528     TIP3     H2       HT       0.417000        1.0080           0
     14146 WT1      4529     TIP3     OH2      OT      -0.834000       15.9994           0
     14147 WT1      4529     TIP3     H1       HT       0.417000        1.0080           0
     14148 WT1      4529     TIP3     H2       HT       0.417000        1.0080           0
     14149 WT1      4530     TIP3     OH2      OT      -0.834000       15.9994           0
     14150 WT1      4530     TIP3     H1       HT       0.417000        1.0080           0
     14151 WT1      4530     TIP3     H2       HT       0.417000        1.0080           0
     14152 WT1      4531     TIP3     OH2      OT      -0.834000       15.9994           0
     14153 WT1      4531     TIP3     H1       HT       0.417000        1.0080           0
     14154 WT1      4531     TIP3     H2       HT       0.417000        1.0080           0
     14155 WT1      4532     TIP3     OH2      OT      -0.834000       15.9994           0
     14156 WT1      4532     TIP3     H1       HT       0.417000        1.0080           0
     14157 WT1      4532     TIP3     H2       HT       0.417000        1.0080           0
     14158 WT1      4533     TIP3     OH2      OT      -0.834000       15.9994           0
     14159 WT1      4533     TIP3     H1       HT       0.417000        1.0080           0
     14160 WT1      4533     TIP3     H2       HT       0.417000        1.0080           0
     14161 WT1      4534     TIP3     OH2      OT      -0.834000       15.9994           0
     14162 WT1      4534     TIP3     H1       HT       0.417000        1.0080           0
     14163 WT1      4534     TIP3     H2       HT       0.417000        1.0080           0
     14164 WT1      4535     TIP3     OH2      OT      -0.834000       15.9994           0
     14165 WT1      4535     TIP3     H1       HT       0.417000        1.0080           0
     14166 WT1      4535     TIP3     H2       HT       0.417000        1.0080           0
     14167 WT1      4536     TIP3     OH2      OT      -0.834000       15.9994           0
     14168 WT1      4536     TIP3     H1       HT       0.417000        1.0080           0
     14169 WT1      4536     TIP3     H2       HT       0.417000        1.0080           0
     14170 WT1      4537     TIP3     OH2      OT      -0.834000       15.9994           0
     14171 WT1      4537     TIP3     H1       HT       0.417000        1.0080           0
     14172 WT1      4537     TIP3     H2       HT       0.417000        1.0080           0
     14173 WT1      4538     TIP3     OH2      OT      -0.834000       15.9994           0
     14174 WT1      4538     TIP3     H1       HT       0.417000        1.0080           0
     14175 WT1      4538     TIP3     H2       HT       0.417000        1.0080           0
     14176 WT1      4539     TIP3     OH2      OT      -0.834000       15.9994           0
     14177 WT1      4539     TIP3     H1       HT       0.417000        1.0080           0
     14178 WT1      4539     TIP3     H2       HT       0.417000        1.0080           0
     14179 WT1      4540     TIP3     OH2      OT      -0.834000       15.9994           0
     14180 WT1      4540     TIP3     H1       HT       0.417000        1.0080           0
     14181 WT1      4540     TIP3     H2       HT       0.417000        1.0080           0
     14182 WT1      4541     TIP3     OH2      OT      -0.834000       15.9994           0
     14183 WT1      4541     TIP3     H1       HT       0.417000        1.0080           0
     14184 WT1      4541     TIP3     H2       HT       0.417000        1.0080           0
     14185 WT1      4542     TIP3     OH2      OT      -0.834000       15.9994           0
     14186 WT1      4542     TIP3     H1       HT       0.417000        1.0080           0
     14187 WT1      4542     TIP3     H2       HT       0.417000        1.0080           0
     14188 WT1      4543     TIP3     OH2      OT      -0.834000       15.9994           0
     14189 WT1      4543     TIP3     H1       HT       0.417000        1.0080           0
     14190 WT1      4543     TIP3     H2       HT       0.417000        1.0080           0
     14191 WT1      4544     TIP3     OH2      OT      -0.834000       15.9994           0
     14192 WT1      4544     TIP3     H1       HT       0.417000        1.0080           0
     14193 WT1      4544     TIP3     H2       HT       0.417000        1.0080           0
     14194 WT1      4545     TIP3     OH2      OT      -0.834000       15.9994           0
     14195 WT1      4545     TIP3     H1       HT       0.417000        1.0080           0
     14196 WT1      4545     TIP3     H2       HT       0.417000        1.0080           0
     14197 WT1      4546     TIP3     OH2      OT      -0.834000       15.9994           0
     14198 WT1      4546     TIP3     H1       HT       0.417000        1.0080           0
     14199 WT1      4546     TIP3     H2       HT       0.417000        1.0080           0
     14200 WT1      4547     TIP3     OH2      OT      -0.834000       15.9994           0
     14201 WT1      4547     TIP3     H1       HT       0.417000        1.0080           0
     14202 WT1      4547     TIP3     H2       HT       0.417000        1.0080           0
     14203 WT1      4548     TIP3     OH2      OT      -0.834000       15.9994           0
     14204 WT1      4548     TIP3     H1       HT       0.417000        1.0080           0
     14205 WT1      4548     TIP3     H2       HT       0.417000        1.0080           0
     14206 WT1      4549     TIP3     OH2      OT      -0.834000       15.9994           0
     14207 WT1      4549     TIP3     H1       HT       0.417000        1.0080           0
     14208 WT1      4549     TIP3     H2       HT       0.417000        1.0080           0
     14209 WT1      4550     TIP3     OH2      OT      -0.834000       15.9994           0
     14210 WT1      4550     TIP3     H1       HT       0.417000        1.0080           0
     14211 WT1      4550     TIP3     H2       HT       0.417000        1.0080           0
     14212 WT1      4551     TIP3     OH2      OT      -0.834000       15.9994           0
     14213 WT1      4551     TIP3     H1       HT       0.417000        1.0080           0
     14214 WT1      4551     TIP3     H2       HT       0.417000        1.0080           0
     14215 WT1      4552     TIP3     OH2      OT      -0.834000       15.9994           0
     14216 WT1      4552     TIP3     H1       HT       0.417000        1.0080           0
     14217 WT1      4552     TIP3     H2       HT       0.417000        1.0080           0
     14218 WT1      4553     TIP3     OH2      OT      -0.834000       15.9994           0
     14219 WT1      4553     TIP3     H1       HT       0.417000        1.0080           0
     14220 WT1      4553     TIP3     H2       HT       0.417000        1.0080           0
     14221 WT1      4554     TIP3     OH2      OT      -0.834000       15.9994           0
     14222 WT1      4554     TIP3     H1       HT       0.417000        1.0080           0
     14223 WT1      4554     TIP3     H2       HT       0.417000        1.0080           0
     14224 WT1      4555     TIP3     OH2      OT      -0.834000       15.9994           0
     14225 WT1      4555     TIP3     H1       HT       0.417000        1.0080           0
     14226 WT1      4555     TIP3     H2       HT       0.417000        1.0080           0
     14227 WT1      4556     TIP3     OH2      OT      -0.834000       15.9994           0
     14228 WT1      4556     TIP3     H1       HT       0.417000        1.0080           0
     14229 WT1      4556     TIP3     H2       HT       0.417000        1.0080           0
     14230 WT1      4557     TIP3     OH2      OT      -0.834000       15.9994           0
     14231 WT1      4557     TIP3     H1       HT       0.417000        1.0080           0
     14232 WT1      4557     TIP3     H2       HT       0.417000        1.0080           0
     14233 WT1      4558     TIP3     OH2      OT      -0.834000       15.9994           0
     14234 WT1      4558     TIP3     H1       HT       0.417000        1.0080           0
     14235 WT1      4558     TIP3     H2       HT       0.417000        1.0080           0
     14236 WT1      4559     TIP3     OH2      OT      -0.834000       15.9994           0
     14237 WT1      4559     TIP3     H1       HT       0.417000        1.0080           0
     14238 WT1      4559     TIP3     H2       HT       0.417000        1.0080           0
     14239 WT1      4560     TIP3     OH2      OT      -0.834000       15.9994           0
     14240 WT1      4560     TIP3     H1       HT       0.417000        1.0080           0
     14241 WT1      4560     TIP3     H2       HT       0.417000        1.0080           0
     14242 WT1      4561     TIP3     OH2      OT      -0.834000       15.9994           0
     14243 WT1      4561     TIP3     H1       HT       0.417000        1.0080           0
     14244 WT1      4561     TIP3     H2       HT       0.417000        1.0080           0
     14245 WT1      4562     TIP3     OH2      OT      -0.834000       15.9994           0
     14246 WT1      4562     TIP3     H1       HT       0.417000        1.0080           0
     14247 WT1      4562     TIP3     H2       HT       0.417000        1.0080           0
     14248 WT1      4563     TIP3     OH2      OT      -0.834000       15.9994           0
     14249 WT1      4563     TIP3     H1       HT       0.417000        1.0080           0
     14250 WT1      4563     TIP3     H2       HT       0.417000        1.0080           0
     14251 WT1      4564     TIP3     OH2      OT      -0.834000       15.9994           0
     14252 WT1      4564     TIP3     H1       HT       0.417000        1.0080           0
     14253 WT1      4564     TIP3     H2       HT       0.417000        1.0080           0
     14254 WT1      4565     TIP3     OH2      OT      -0.834000       15.9994           0
     14255 WT1      4565     TIP3     H1       HT       0.417000        1.0080           0
     14256 WT1      4565     TIP3     H2       HT       0.417000        1.0080           0
     14257 WT1      4566     TIP3     OH2      OT      -0.834000       15.9994           0
     14258 WT1      4566     TIP3     H1       HT       0.417000        1.0080           0
     14259 WT1      4566     TIP3     H2       HT       0.417000        1.0080           0
     14260 WT1      4567     TIP3     OH2      OT      -0.834000       15.9994           0
     14261 WT1      4567     TIP3     H1       HT       0.417000        1.0080           0
     14262 WT1      4567     TIP3     H2       HT       0.417000        1.0080           0
     14263 WT1      4568     TIP3     OH2      OT      -0.834000       15.9994           0
     14264 WT1      4568     TIP3     H1       HT       0.417000        1.0080           0
     14265 WT1      4568     TIP3     H2       HT       0.417000        1.0080           0
     14266 WT1      4569     TIP3     OH2      OT      -0.834000       15.9994           0
     14267 WT1      4569     TIP3     H1       HT       0.417000        1.0080           0
     14268 WT1      4569     TIP3     H2       HT       0.417000        1.0080           0
     14269 WT1      4570     TIP3     OH2      OT      -0.834000       15.9994           0
     14270 WT1      4570     TIP3     H1       HT       0.417000        1.0080           0
     14271 WT1      4570     TIP3     H2       HT       0.417000        1.0080           0
     14272 WT1      4571     TIP3     OH2      OT      -0.834000       15.9994           0
     14273 WT1      4571     TIP3     H1       HT       0.417000        1.0080           0
     14274 WT1      4571     TIP3     H2       HT       0.417000        1.0080           0
     14275 WT1      4572     TIP3     OH2      OT      -0.834000       15.9994           0
     14276 WT1      4572     TIP3     H1       HT       0.417000        1.0080           0
     14277 WT1      4572     TIP3     H2       HT       0.417000        1.0080           0
     14278 WT1      4573     TIP3     OH2      OT      -0.834000       15.9994           0
     14279 WT1      4573     TIP3     H1       HT       0.417000        1.0080           0
     14280 WT1      4573     TIP3     H2       HT       0.417000        1.0080           0
     14281 WT1      4574     TIP3     OH2      OT      -0.834000       15.9994           0
     14282 WT1      4574     TIP3     H1       HT       0.417000        1.0080           0
     14283 WT1      4574     TIP3     H2       HT       0.417000        1.0080           0
     14284 WT1      4575     TIP3     OH2      OT      -0.834000       15.9994           0
     14285 WT1      4575     TIP3     H1       HT       0.417000        1.0080           0
     14286 WT1      4575     TIP3     H2       HT       0.417000        1.0080           0
     14287 WT1      4576     TIP3     OH2      OT      -0.834000       15.9994           0
     14288 WT1      4576     TIP3     H1       HT       0.417000        1.0080           0
     14289 WT1      4576     TIP3     H2       HT       0.417000        1.0080           0
     14290 WT1      4577     TIP3     OH2      OT      -0.834000       15.9994           0
     14291 WT1      4577     TIP3     H1       HT       0.417000        1.0080           0
     14292 WT1      4577     TIP3     H2       HT       0.417000        1.0080           0
     14293 WT1      4578     TIP3     OH2      OT      -0.834000       15.9994           0
     14294 WT1      4578     TIP3     H1       HT       0.417000        1.0080           0
     14295 WT1      4578     TIP3     H2       HT       0.417000        1.0080           0
     14296 WT1      4579     TIP3     OH2      OT      -0.834000       15.9994           0
     14297 WT1      4579     TIP3     H1       HT       0.417000        1.0080           0
     14298 WT1      4579     TIP3     H2       HT       0.417000        1.0080           0
     14299 WT1      4580     TIP3     OH2      OT      -0.834000       15.9994           0
     14300 WT1      4580     TIP3     H1       HT       0.417000        1.0080           0
     14301 WT1      4580     TIP3     H2       HT       0.417000        1.0080           0
     14302 WT1      4581     TIP3     OH2      OT      -0.834000       15.9994           0
     14303 WT1      4581     TIP3     H1       HT       0.417000        1.0080           0
     14304 WT1      4581     TIP3     H2       HT       0.417000        1.0080           0
     14305 WT1      4582     TIP3     OH2      OT      -0.834000       15.9994           0
     14306 WT1      4582     TIP3     H1       HT       0.417000        1.0080           0
     14307 WT1      4582     TIP3     H2       HT       0.417000        1.0080           0
     14308 WT1      4583     TIP3     OH2      OT      -0.834000       15.9994           0
     14309 WT1      4583     TIP3     H1       HT       0.417000        1.0080           0
     14310 WT1      4583     TIP3     H2       HT       0.417000        1.0080           0
     14311 WT1      4584     TIP3     OH2      OT      -0.834000       15.9994           0
     14312 WT1      4584     TIP3     H1       HT       0.417000        1.0080           0
     14313 WT1      4584     TIP3     H2       HT       0.417000        1.0080           0
     14314 WT1      4585     TIP3     OH2      OT      -0.834000       15.9994           0
     14315 WT1      4585     TIP3     H1       HT       0.417000        1.0080           0
     14316 WT1      4585     TIP3     H2       HT       0.417000        1.0080           0
     14317 WT1      4586     TIP3     OH2      OT      -0.834000       15.9994           0
     14318 WT1      4586     TIP3     H1       HT       0.417000        1.0080           0
     14319 WT1      4586     TIP3     H2       HT       0.417000        1.0080           0
     14320 WT1      4587     TIP3     OH2      OT      -0.834000       15.9994           0
     14321 WT1      4587     TIP3     H1       HT       0.417000        1.0080           0
     14322 WT1      4587     TIP3     H2       HT       0.417000        1.0080           0
     14323 WT1      4588     TIP3     OH2      OT      -0.834000       15.9994           0
     14324 WT1      4588     TIP3     H1       HT       0.417000        1.0080           0
     14325 WT1      4588     TIP3     H2       HT       0.417000        1.0080           0
     14326 WT1      4589     TIP3     OH2      OT      -0.834000       15.9994           0
     14327 WT1      4589     TIP3     H1       HT       0.417000        1.0080           0
     14328 WT1      4589     TIP3     H2       HT       0.417000        1.0080           0
     14329 WT1      4590     TIP3     OH2      OT      -0.834000       15.9994           0
     14330 WT1      4590     TIP3     H1       HT       0.417000        1.0080           0
     14331 WT1      4590     TIP3     H2       HT       0.417000        1.0080           0
     14332 WT1      4591     TIP3     OH2      OT      -0.834000       15.9994           0
     14333 WT1      4591     TIP3     H1       HT       0.417000        1.0080           0
     14334 WT1      4591     TIP3     H2       HT       0.417000        1.0080           0
     14335 WT1      4592     TIP3     OH2      OT      -0.834000       15.9994           0
     14336 WT1      4592     TIP3     H1       HT       0.417000        1.0080           0
     14337 WT1      4592     TIP3     H2       HT       0.417000        1.0080           0
     14338 WT1      4593     TIP3     OH2      OT      -0.834000       15.9994           0
     14339 WT1      4593     TIP3     H1       HT       0.417000        1.0080           0
     14340 WT1      4593     TIP3     H2       HT       0.417000        1.0080           0
     14341 WT1      4594     TIP3     OH2      OT      -0.834000       15.9994           0
     14342 WT1      4594     TIP3     H1       HT       0.417000        1.0080           0
     14343 WT1      4594     TIP3     H2       HT       0.417000        1.0080           0
     14344 WT1      4595     TIP3     OH2      OT      -0.834000       15.9994           0
     14345 WT1      4595     TIP3     H1       HT       0.417000        1.0080           0
     14346 WT1      4595     TIP3     H2       HT       0.417000        1.0080           0
     14347 WT1      4596     TIP3     OH2      OT      -0.834000       15.9994           0
     14348 WT1      4596     TIP3     H1       HT       0.417000        1.0080           0
     14349 WT1      4596     TIP3     H2       HT       0.417000        1.0080           0
     14350 WT1      4597     TIP3     OH2      OT      -0.834000       15.9994           0
     14351 WT1      4597     TIP3     H1       HT       0.417000        1.0080           0
     14352 WT1      4597     TIP3     H2       HT       0.417000        1.0080           0
     14353 WT1      4598     TIP3     OH2      OT      -0.834000       15.9994           0
     14354 WT1      4598     TIP3     H1       HT       0.417000        1.0080           0
     14355 WT1      4598     TIP3     H2       HT       0.417000        1.0080           0
     14356 WT1      4599     TIP3     OH2      OT      -0.834000       15.9994           0
     14357 WT1      4599     TIP3     H1       HT       0.417000        1.0080           0
     14358 WT1      4599     TIP3     H2       HT       0.417000        1.0080           0
     14359 WT1      4600     TIP3     OH2      OT      -0.834000       15.9994           0
     14360 WT1      4600     TIP3     H1       HT       0.417000        1.0080           0
     14361 WT1      4600     TIP3     H2       HT       0.417000        1.0080           0
     14362 WT1      4601     TIP3     OH2      OT      -0.834000       15.9994           0
     14363 WT1      4601     TIP3     H1       HT       0.417000        1.0080           0
     14364 WT1      4601     TIP3     H2       HT       0.417000        1.0080           0
     14365 WT1      4602     TIP3     OH2      OT      -0.834000       15.9994           0
     14366 WT1      4602     TIP3     H1       HT       0.417000        1.0080           0
     14367 WT1      4602     TIP3     H2       HT       0.417000        1.0080           0
     14368 WT1      4603     TIP3     OH2      OT      -0.834000       15.9994           0
     14369 WT1      4603     TIP3     H1       HT       0.417000        1.0080           0
     14370 WT1      4603     TIP3     H2       HT       0.417000        1.0080           0
     14371 WT1      4604     TIP3     OH2      OT      -0.834000       15.9994           0
     14372 WT1      4604     TIP3     H1       HT       0.417000        1.0080           0
     14373 WT1      4604     TIP3     H2       HT       0.417000        1.0080           0
     14374 WT1      4605     TIP3     OH2      OT      -0.834000       15.9994           0
     14375 WT1      4605     TIP3     H1       HT       0.417000        1.0080           0
     14376 WT1      4605     TIP3     H2       HT       0.417000        1.0080           0
     14377 WT1      4606     TIP3     OH2      OT      -0.834000       15.9994           0
     14378 WT1      4606     TIP3     H1       HT       0.417000        1.0080           0
     14379 WT1      4606     TIP3     H2       HT       0.417000        1.0080           0
     14380 WT1      4607     TIP3     OH2      OT      -0.834000       15.9994           0
     14381 WT1      4607     TIP3     H1       HT       0.417000        1.0080           0
     14382 WT1      4607     TIP3     H2       HT       0.417000        1.0080           0
     14383 WT1      4608     TIP3     OH2      OT      -0.834000       15.9994           0
     14384 WT1      4608     TIP3     H1       HT       0.417000        1.0080           0
     14385 WT1      4608     TIP3     H2       HT       0.417000        1.0080           0
     14386 WT1      4609     TIP3     OH2      OT      -0.834000       15.9994           0
     14387 WT1      4609     TIP3     H1       HT       0.417000        1.0080           0
     14388 WT1      4609     TIP3     H2       HT       0.417000        1.0080           0
     14389 WT1      4610     TIP3     OH2      OT      -0.834000       15.9994           0
     14390 WT1      4610     TIP3     H1       HT       0.417000        1.0080           0
     14391 WT1      4610     TIP3     H2       HT       0.417000        1.0080           0
     14392 WT1      4611     TIP3     OH2      OT      -0.834000       15.9994           0
     14393 WT1      4611     TIP3     H1       HT       0.417000        1.0080           0
     14394 WT1      4611     TIP3     H2       HT       0.417000        1.0080           0
     14395 WT1      4612     TIP3     OH2      OT      -0.834000       15.9994           0
     14396 WT1      4612     TIP3     H1       HT       0.417000        1.0080           0
     14397 WT1      4612     TIP3     H2       HT       0.417000        1.0080           0
     14398 WT1      4613     TIP3     OH2      OT      -0.834000       15.9994           0
     14399 WT1      4613     TIP3     H1       HT       0.417000        1.0080           0
     14400 WT1      4613     TIP3     H2       HT       0.417000        1.0080           0
     14401 WT1      4614     TIP3     OH2      OT      -0.834000       15.9994           0
     14402 WT1      4614     TIP3     H1       HT       0.417000        1.0080           0
     14403 WT1      4614     TIP3     H2       HT       0.417000        1.0080           0
     14404 WT1      4615     TIP3     OH2      OT      -0.834000       15.9994           0
     14405 WT1      4615     TIP3     H1       HT       0.417000        1.0080           0
     14406 WT1      4615     TIP3     H2       HT       0.417000        1.0080           0
     14407 WT1      4616     TIP3     OH2      OT      -0.834000       15.9994           0
     14408 WT1      4616     TIP3     H1       HT       0.417000        1.0080           0
     14409 WT1      4616     TIP3     H2       HT       0.417000        1.0080           0
     14410 WT1      4617     TIP3     OH2      OT      -0.834000       15.9994           0
     14411 WT1      4617     TIP3     H1       HT       0.417000        1.0080           0
     14412 WT1      4617     TIP3     H2       HT       0.417000        1.0080           0
     14413 WT1      4618     TIP3     OH2      OT      -0.834000       15.9994           0
     14414 WT1      4618     TIP3     H1       HT       0.417000        1.0080           0
     14415 WT1      4618     TIP3     H2       HT       0.417000        1.0080           0
     14416 WT1      4619     TIP3     OH2      OT      -0.834000       15.9994           0
     14417 WT1      4619     TIP3     H1       HT       0.417000        1.0080           0
     14418 WT1      4619     TIP3     H2       HT       0.417000        1.0080           0
     14419 WT1      4620     TIP3     OH2      OT      -0.834000       15.9994           0
     14420 WT1      4620     TIP3     H1       HT       0.417000        1.0080           0
     14421 WT1      4620     TIP3     H2       HT       0.417000        1.0080           0
     14422 WT1      4621     TIP3     OH2      OT      -0.834000       15.9994           0
     14423 WT1      4621     TIP3     H1       HT       0.417000        1.0080           0
     14424 WT1      4621     TIP3     H2       HT       0.417000        1.0080           0
     14425 WT1      4622     TIP3     OH2      OT      -0.834000       15.9994           0
     14426 WT1      4622     TIP3     H1       HT       0.417000        1.0080           0
     14427 WT1      4622     TIP3     H2       HT       0.417000        1.0080           0
     14428 WT1      4623     TIP3     OH2      OT      -0.834000       15.9994           0
     14429 WT1      4623     TIP3     H1       HT       0.417000        1.0080           0
     14430 WT1      4623     TIP3     H2       HT       0.417000        1.0080           0
     14431 WT1      4624     TIP3     OH2      OT      -0.834000       15.9994           0
     14432 WT1      4624     TIP3     H1       HT       0.417000        1.0080           0
     14433 WT1      4624     TIP3     H2       HT       0.417000        1.0080           0
     14434 WT1      4625     TIP3     OH2      OT      -0.834000       15.9994           0
     14435 WT1      4625     TIP3     H1       HT       0.417000        1.0080           0
     14436 WT1      4625     TIP3     H2       HT       0.417000        1.0080           0
     14437 WT1      4626     TIP3     OH2      OT      -0.834000       15.9994           0
     14438 WT1      4626     TIP3     H1       HT       0.417000        1.0080           0
     14439 WT1      4626     TIP3     H2       HT       0.417000        1.0080           0
     14440 WT1      4627     TIP3     OH2      OT      -0.834000       15.9994           0
     14441 WT1      4627     TIP3     H1       HT       0.417000        1.0080           0
     14442 WT1      4627     TIP3     H2       HT       0.417000        1.0080           0
     14443 WT1      4628     TIP3     OH2      OT      -0.834000       15.9994           0
     14444 WT1      4628     TIP3     H1       HT       0.417000        1.0080           0
     14445 WT1      4628     TIP3     H2       HT       0.417000        1.0080           0
     14446 WT1      4629     TIP3     OH2      OT      -0.834000       15.9994           0
     14447 WT1      4629     TIP3     H1       HT       0.417000        1.0080           0
     14448 WT1      4629     TIP3     H2       HT       0.417000        1.0080           0
     14449 WT1      4630     TIP3     OH2      OT      -0.834000       15.9994           0
     14450 WT1      4630     TIP3     H1       HT       0.417000        1.0080           0
     14451 WT1      4630     TIP3     H2       HT       0.417000        1.0080           0
     14452 WT1      4631     TIP3     OH2      OT      -0.834000       15.9994           0
     14453 WT1      4631     TIP3     H1       HT       0.417000        1.0080           0
     14454 WT1      4631     TIP3     H2       HT       0.417000        1.0080           0
     14455 WT1      4632     TIP3     OH2      OT      -0.834000       15.9994           0
     14456 WT1      4632     TIP3     H1       HT       0.417000        1.0080           0
     14457 WT1      4632     TIP3     H2       HT       0.417000        1.0080           0
     14458 WT1      4633     TIP3     OH2      OT      -0.834000       15.9994           0
     14459 WT1      4633     TIP3     H1       HT       0.417000        1.0080           0
     14460 WT1      4633     TIP3     H2       HT       0.417000        1.0080           0
     14461 WT1      4634     TIP3     OH2      OT      -0.834000       15.9994           0
     14462 WT1      4634     TIP3     H1       HT       0.417000        1.0080           0
     14463 WT1      4634     TIP3     H2       HT       0.417000        1.0080           0
     14464 WT1      4635     TIP3     OH2      OT      -0.834000       15.9994           0
     14465 WT1      4635     TIP3     H1       HT       0.417000        1.0080           0
     14466 WT1      4635     TIP3     H2       HT       0.417000        1.0080           0
     14467 WT1      4636     TIP3     OH2      OT      -0.834000       15.9994           0
     14468 WT1      4636     TIP3     H1       HT       0.417000        1.0080           0
     14469 WT1      4636     TIP3     H2       HT       0.417000        1.0080           0
     14470 WT1      4637     TIP3     OH2      OT      -0.834000       15.9994           0
     14471 WT1      4637     TIP3     H1       HT       0.417000        1.0080           0
     14472 WT1      4637     TIP3     H2       HT       0.417000        1.0080           0
     14473 WT1      4638     TIP3     OH2      OT      -0.834000       15.9994           0
     14474 WT1      4638     TIP3     H1       HT       0.417000        1.0080           0
     14475 WT1      4638     TIP3     H2       HT       0.417000        1.0080           0
     14476 WT1      4639     TIP3     OH2      OT      -0.834000       15.9994           0
     14477 WT1      4639     TIP3     H1       HT       0.417000        1.0080           0
     14478 WT1      4639     TIP3     H2       HT       0.417000        1.0080           0
     14479 WT1      4640     TIP3     OH2      OT      -0.834000       15.9994           0
     14480 WT1      4640     TIP3     H1       HT       0.417000        1.0080           0
     14481 WT1      4640     TIP3     H2       HT       0.417000        1.0080           0
     14482 WT1      4641     TIP3     OH2      OT      -0.834000       15.9994           0
     14483 WT1      4641     TIP3     H1       HT       0.417000        1.0080           0
     14484 WT1      4641     TIP3     H2       HT       0.417000        1.0080           0
     14485 WT1      4642     TIP3     OH2      OT      -0.834000       15.9994           0
     14486 WT1      4642     TIP3     H1       HT       0.417000        1.0080           0
     14487 WT1      4642     TIP3     H2       HT       0.417000        1.0080           0
     14488 WT1      4643     TIP3     OH2      OT      -0.834000       15.9994           0
     14489 WT1      4643     TIP3     H1       HT       0.417000        1.0080           0
     14490 WT1      4643     TIP3     H2       HT       0.417000        1.0080           0
     14491 WT1      4644     TIP3     OH2      OT      -0.834000       15.9994           0
     14492 WT1      4644     TIP3     H1       HT       0.417000        1.0080           0
     14493 WT1      4644     TIP3     H2       HT       0.417000        1.0080           0
     14494 WT1      4645     TIP3     OH2      OT      -0.834000       15.9994           0
     14495 WT1      4645     TIP3     H1       HT       0.417000        1.0080           0
     14496 WT1      4645     TIP3     H2       HT       0.417000        1.0080           0
     14497 WT1      4646     TIP3     OH2      OT      -0.834000       15.9994           0
     14498 WT1      4646     TIP3     H1       HT       0.417000        1.0080           0
     14499 WT1      4646     TIP3     H2       HT       0.417000        1.0080           0
     14500 WT1      4647     TIP3     OH2      OT      -0.834000       15.9994           0
     14501 WT1      4647     TIP3     H1       HT       0.417000        1.0080           0
     14502 WT1      4647     TIP3     H2       HT       0.417000        1.0080           0
     14503 WT1      4648     TIP3     OH2      OT      -0.834000       15.9994           0
     14504 WT1      4648     TIP3     H1       HT       0.417000        1.0080           0
     14505 WT1      4648     TIP3     H2       HT       0.417000        1.0080           0
     14506 WT1      4649     TIP3     OH2      OT      -0.834000       15.9994           0
     14507 WT1      4649     TIP3     H1       HT       0.417000        1.0080           0
     14508 WT1      4649     TIP3     H2       HT       0.417000        1.0080           0
     14509 WT1      4650     TIP3     OH2      OT      -0.834000       15.9994           0
     14510 WT1      4650     TIP3     H1       HT       0.417000        1.0080           0
     14511 WT1      4650     TIP3     H2       HT       0.417000        1.0080           0
     14512 WT1      4651     TIP3     OH2      OT      -0.834000       15.9994           0
     14513 WT1      4651     TIP3     H1       HT       0.417000        1.0080           0
     14514 WT1      4651     TIP3     H2       HT       0.417000        1.0080           0
     14515 WT1      4652     TIP3     OH2      OT      -0.834000       15.9994           0
     14516 WT1      4652     TIP3     H1       HT       0.417000        1.0080           0
     14517 WT1      4652     TIP3     H2       HT       0.417000        1.0080           0
     14518 WT1      4653     TIP3     OH2      OT      -0.834000       15.9994           0
     14519 WT1      4653     TIP3     H1       HT       0.417000        1.0080           0
     14520 WT1      4653     TIP3     H2       HT       0.417000        1.0080           0
     14521 WT1      4654     TIP3     OH2      OT      -0.834000       15.9994           0
     14522 WT1      4654     TIP3     H1       HT       0.417000        1.0080           0
     14523 WT1      4654     TIP3     H2       HT       0.417000        1.0080           0
     14524 WT1      4655     TIP3     OH2      OT      -0.834000       15.9994           0
     14525 WT1      4655     TIP3     H1       HT       0.417000        1.0080           0
     14526 WT1      4655     TIP3     H2       HT       0.417000        1.0080           0
     14527 WT1      4656     TIP3     OH2      OT      -0.834000       15.9994           0
     14528 WT1      4656     TIP3     H1       HT       0.417000        1.0080           0
     14529 WT1      4656     TIP3     H2       HT       0.417000        1.0080           0
     14530 WT1      4657     TIP3     OH2      OT      -0.834000       15.9994           0
     14531 WT1      4657     TIP3     H1       HT       0.417000        1.0080           0
     14532 WT1      4657     TIP3     H2       HT       0.417000        1.0080           0
     14533 WT1      4658     TIP3     OH2      OT      -0.834000       15.9994           0
     14534 WT1      4658     TIP3     H1       HT       0.417000        1.0080           0
     14535 WT1      4658     TIP3     H2       HT       0.417000        1.0080           0
     14536 WT1      4659     TIP3     OH2      OT      -0.834000       15.9994           0
     14537 WT1      4659     TIP3     H1       HT       0.417000        1.0080           0
     14538 WT1      4659     TIP3     H2       HT       0.417000        1.0080           0
     14539 WT1      4660     TIP3     OH2      OT      -0.834000       15.9994           0
     14540 WT1      4660     TIP3     H1       HT       0.417000        1.0080           0
     14541 WT1      4660     TIP3     H2       HT       0.417000        1.0080           0
     14542 WT1      4661     TIP3     OH2      OT      -0.834000       15.9994           0
     14543 WT1      4661     TIP3     H1       HT       0.417000        1.0080           0
     14544 WT1      4661     TIP3     H2       HT       0.417000        1.0080           0
     14545 WT1      4662     TIP3     OH2      OT      -0.834000       15.9994           0
     14546 WT1      4662     TIP3     H1       HT       0.417000        1.0080           0
     14547 WT1      4662     TIP3     H2       HT       0.417000        1.0080           0
     14548 WT1      4663     TIP3     OH2      OT      -0.834000       15.9994           0
     14549 WT1      4663     TIP3     H1       HT       0.417000        1.0080           0
     14550 WT1      4663     TIP3     H2       HT       0.417000        1.0080           0
     14551 WT1      4664     TIP3     OH2      OT      -0.834000       15.9994           0
     14552 WT1      4664     TIP3     H1       HT       0.417000        1.0080           0
     14553 WT1      4664     TIP3     H2       HT       0.417000        1.0080           0
     14554 WT1      4665     TIP3     OH2      OT      -0.834000       15.9994           0
     14555 WT1      4665     TIP3     H1       HT       0.417000        1.0080           0
     14556 WT1      4665     TIP3     H2       HT       0.417000        1.0080           0
     14557 WT1      4666     TIP3     OH2      OT      -0.834000       15.9994           0
     14558 WT1      4666     TIP3     H1       HT       0.417000        1.0080           0
     14559 WT1      4666     TIP3     H2       HT       0.417000        1.0080           0
     14560 WT1      4667     TIP3     OH2      OT      -0.834000       15.9994           0
     14561 WT1      4667     TIP3     H1       HT       0.417000        1.0080           0
     14562 WT1      4667     TIP3     H2       HT       0.417000        1.0080           0
     14563 WT1      4668     TIP3     OH2      OT      -0.834000       15.9994           0
     14564 WT1      4668     TIP3     H1       HT       0.417000        1.0080           0
     14565 WT1      4668     TIP3     H2       HT       0.417000        1.0080           0
     14566 WT1      4669     TIP3     OH2      OT      -0.834000       15.9994           0
     14567 WT1      4669     TIP3     H1       HT       0.417000        1.0080           0
     14568 WT1      4669     TIP3     H2       HT       0.417000        1.0080           0
     14569 WT1      4670     TIP3     OH2      OT      -0.834000       15.9994           0
     14570 WT1      4670     TIP3     H1       HT       0.417000        1.0080           0
     14571 WT1      4670     TIP3     H2       HT       0.417000        1.0080           0
     14572 WT1      4671     TIP3     OH2      OT      -0.834000       15.9994           0
     14573 WT1      4671     TIP3     H1       HT       0.417000        1.0080           0
     14574 WT1      4671     TIP3     H2       HT       0.417000        1.0080           0
     14575 WT1      4672     TIP3     OH2      OT      -0.834000       15.9994           0
     14576 WT1      4672     TIP3     H1       HT       0.417000        1.0080           0
     14577 WT1      4672     TIP3     H2       HT       0.417000        1.0080           0
     14578 WT1      4673     TIP3     OH2      OT      -0.834000       15.9994           0
     14579 WT1      4673     TIP3     H1       HT       0.417000        1.0080           0
     14580 WT1      4673     TIP3     H2       HT       0.417000        1.0080           0
     14581 WT1      4674     TIP3     OH2      OT      -0.834000       15.9994           0
     14582 WT1      4674     TIP3     H1       HT       0.417000        1.0080           0
     14583 WT1      4674     TIP3     H2       HT       0.417000        1.0080           0
     14584 WT1      4675     TIP3     OH2      OT      -0.834000       15.9994           0
     14585 WT1      4675     TIP3     H1       HT       0.417000        1.0080           0
     14586 WT1      4675     TIP3     H2       HT       0.417000        1.0080           0
     14587 WT1      4676     TIP3     OH2      OT      -0.834000       15.9994           0
     14588 WT1      4676     TIP3     H1       HT       0.417000        1.0080           0
     14589 WT1      4676     TIP3     H2       HT       0.417000        1.0080           0
     14590 WT1      4677     TIP3     OH2      OT      -0.834000       15.9994           0
     14591 WT1      4677     TIP3     H1       HT       0.417000        1.0080           0
     14592 WT1      4677     TIP3     H2       HT       0.417000        1.0080           0
     14593 WT1      4678     TIP3     OH2      OT      -0.834000       15.9994           0
     14594 WT1      4678     TIP3     H1       HT       0.417000        1.0080           0
     14595 WT1      4678     TIP3     H2       HT       0.417000        1.0080           0
     14596 WT1      4679     TIP3     OH2      OT      -0.834000       15.9994           0
     14597 WT1      4679     TIP3     H1       HT       0.417000        1.0080           0
     14598 WT1      4679     TIP3     H2       HT       0.417000        1.0080           0
     14599 WT1      4680     TIP3     OH2      OT      -0.834000       15.9994           0
     14600 WT1      4680     TIP3     H1       HT       0.417000        1.0080           0
     14601 WT1      4680     TIP3     H2       HT       0.417000        1.0080           0
     14602 WT1      4681     TIP3     OH2      OT      -0.834000       15.9994           0
     14603 WT1      4681     TIP3     H1       HT       0.417000        1.0080           0
     14604 WT1      4681     TIP3     H2       HT       0.417000        1.0080           0
     14605 WT1      4682     TIP3     OH2      OT      -0.834000       15.9994           0
     14606 WT1      4682     TIP3     H1       HT       0.417000        1.0080           0
     14607 WT1      4682     TIP3     H2       HT       0.417000        1.0080           0
     14608 WT1      4683     TIP3     OH2      OT      -0.834000       15.9994           0
     14609 WT1      4683     TIP3     H1       HT       0.417000        1.0080           0
     14610 WT1      4683     TIP3     H2       HT       0.417000        1.0080           0
     14611 WT1      4684     TIP3     OH2      OT      -0.834000       15.9994           0
     14612 WT1      4684     TIP3     H1       HT       0.417000        1.0080           0
     14613 WT1      4684     TIP3     H2       HT       0.417000        1.0080           0
     14614 WT1      4685     TIP3     OH2      OT      -0.834000       15.9994           0
     14615 WT1      4685     TIP3     H1       HT       0.417000        1.0080           0
     14616 WT1      4685     TIP3     H2       HT       0.417000        1.0080           0
     14617 WT1      4686     TIP3     OH2      OT      -0.834000       15.9994           0
     14618 WT1      4686     TIP3     H1       HT       0.417000        1.0080           0
     14619 WT1      4686     TIP3     H2       HT       0.417000        1.0080           0
     14620 WT1      4687     TIP3     OH2      OT      -0.834000       15.9994           0
     14621 WT1      4687     TIP3     H1       HT       0.417000        1.0080           0
     14622 WT1      4687     TIP3     H2       HT       0.417000        1.0080           0
     14623 WT1      4688     TIP3     OH2      OT      -0.834000       15.9994           0
     14624 WT1      4688     TIP3     H1       HT       0.417000        1.0080           0
     14625 WT1      4688     TIP3     H2       HT       0.417000        1.0080           0
     14626 WT1      4689     TIP3     OH2      OT      -0.834000       15.9994           0
     14627 WT1      4689     TIP3     H1       HT       0.417000        1.0080           0
     14628 WT1      4689     TIP3     H2       HT       0.417000        1.0080           0
     14629 WT1      4690     TIP3     OH2      OT      -0.834000       15.9994           0
     14630 WT1      4690     TIP3     H1       HT       0.417000        1.0080           0
     14631 WT1      4690     TIP3     H2       HT       0.417000        1.0080           0
     14632 WT1      4691     TIP3     OH2      OT      -0.834000       15.9994           0
     14633 WT1      4691     TIP3     H1       HT       0.417000        1.0080           0
     14634 WT1      4691     TIP3     H2       HT       0.417000        1.0080           0
     14635 WT1      4692     TIP3     OH2      OT      -0.834000       15.9994           0
     14636 WT1      4692     TIP3     H1       HT       0.417000        1.0080           0
     14637 WT1      4692     TIP3     H2       HT       0.417000        1.0080           0
     14638 WT1      4693     TIP3     OH2      OT      -0.834000       15.9994           0
     14639 WT1      4693     TIP3     H1       HT       0.417000        1.0080           0
     14640 WT1      4693     TIP3     H2       HT       0.417000        1.0080           0
     14641 WT1      4694     TIP3     OH2      OT      -0.834000       15.9994           0
     14642 WT1      4694     TIP3     H1       HT       0.417000        1.0080           0
     14643 WT1      4694     TIP3     H2       HT       0.417000        1.0080           0
     14644 WT1      4695     TIP3     OH2      OT      -0.834000       15.9994           0
     14645 WT1      4695     TIP3     H1       HT       0.417000        1.0080           0
     14646 WT1      4695     TIP3     H2       HT       0.417000        1.0080           0
     14647 WT1      4696     TIP3     OH2      OT      -0.834000       15.9994           0
     14648 WT1      4696     TIP3     H1       HT       0.417000        1.0080           0
     14649 WT1      4696     TIP3     H2       HT       0.417000        1.0080           0
     14650 WT1      4697     TIP3     OH2      OT      -0.834000       15.9994           0
     14651 WT1      4697     TIP3     H1       HT       0.417000        1.0080           0
     14652 WT1      4697     TIP3     H2       HT       0.417000        1.0080           0
     14653 WT1      4698     TIP3     OH2      OT      -0.834000       15.9994           0
     14654 WT1      4698     TIP3     H1       HT       0.417000        1.0080           0
     14655 WT1      4698     TIP3     H2       HT       0.417000        1.0080           0
     14656 WT1      4699     TIP3     OH2      OT      -0.834000       15.9994           0
     14657 WT1      4699     TIP3     H1       HT       0.417000        1.0080           0
     14658 WT1      4699     TIP3     H2       HT       0.417000        1.0080           0
     14659 WT1      4700     TIP3     OH2      OT      -0.834000       15.9994           0
     14660 WT1      4700     TIP3     H1       HT       0.417000        1.0080           0
     14661 WT1      4700     TIP3     H2       HT       0.417000        1.0080           0
     14662 WT1      4701     TIP3     OH2      OT      -0.834000       15.9994           0
     14663 WT1      4701     TIP3     H1       HT       0.417000        1.0080           0
     14664 WT1      4701     TIP3     H2       HT       0.417000        1.0080           0
     14665 WT1      4702     TIP3     OH2      OT      -0.834000       15.9994           0
     14666 WT1      4702     TIP3     H1       HT       0.417000        1.0080           0
     14667 WT1      4702     TIP3     H2       HT       0.417000        1.0080           0
     14668 WT1      4703     TIP3     OH2      OT      -0.834000       15.9994           0
     14669 WT1      4703     TIP3     H1       HT       0.417000        1.0080           0
     14670 WT1      4703     TIP3     H2       HT       0.417000        1.0080           0
     14671 WT1      4704     TIP3     OH2      OT      -0.834000       15.9994           0
     14672 WT1      4704     TIP3     H1       HT       0.417000        1.0080           0
     14673 WT1      4704     TIP3     H2       HT       0.417000        1.0080           0
     14674 WT1      4705     TIP3     OH2      OT      -0.834000       15.9994           0
     14675 WT1      4705     TIP3     H1       HT       0.417000        1.0080           0
     14676 WT1      4705     TIP3     H2       HT       0.417000        1.0080           0
     14677 WT1      4706     TIP3     OH2      OT      -0.834000       15.9994           0
     14678 WT1      4706     TIP3     H1       HT       0.417000        1.0080           0
     14679 WT1      4706     TIP3     H2       HT       0.417000        1.0080           0
     14680 WT1      4707     TIP3     OH2      OT      -0.834000       15.9994           0
     14681 WT1      4707     TIP3     H1       HT       0.417000        1.0080           0
     14682 WT1      4707     TIP3     H2       HT       0.417000        1.0080           0
     14683 WT1      4708     TIP3     OH2      OT      -0.834000       15.9994           0
     14684 WT1      4708     TIP3     H1       HT       0.417000        1.0080           0
     14685 WT1      4708     TIP3     H2       HT       0.417000        1.0080           0
     14686 WT1      4709     TIP3     OH2      OT      -0.834000       15.9994           0
     14687 WT1      4709     TIP3     H1       HT       0.417000        1.0080           0
     14688 WT1      4709     TIP3     H2       HT       0.417000        1.0080           0
     14689 WT1      4710     TIP3     OH2      OT      -0.834000       15.9994           0
     14690 WT1      4710     TIP3     H1       HT       0.417000        1.0080           0
     14691 WT1      4710     TIP3     H2       HT       0.417000        1.0080           0
     14692 WT1      4711     TIP3     OH2      OT      -0.834000       15.9994           0
     14693 WT1      4711     TIP3     H1       HT       0.417000        1.0080           0
     14694 WT1      4711     TIP3     H2       HT       0.417000        1.0080           0
     14695 WT1      4712     TIP3     OH2      OT      -0.834000       15.9994           0
     14696 WT1      4712     TIP3     H1       HT       0.417000        1.0080           0
     14697 WT1      4712     TIP3     H2       HT       0.417000        1.0080           0
     14698 WT1      4713     TIP3     OH2      OT      -0.834000       15.9994           0
     14699 WT1      4713     TIP3     H1       HT       0.417000        1.0080           0
     14700 WT1      4713     TIP3     H2       HT       0.417000        1.0080           0
     14701 WT1      4714     TIP3     OH2      OT      -0.834000       15.9994           0
     14702 WT1      4714     TIP3     H1       HT       0.417000        1.0080           0
     14703 WT1      4714     TIP3     H2       HT       0.417000        1.0080           0
     14704 WT1      4715     TIP3     OH2      OT      -0.834000       15.9994           0
     14705 WT1      4715     TIP3     H1       HT       0.417000        1.0080           0
     14706 WT1      4715     TIP3     H2       HT       0.417000        1.0080           0
     14707 WT1      4716     TIP3     OH2      OT      -0.834000       15.9994           0
     14708 WT1      4716     TIP3     H1       HT       0.417000        1.0080           0
     14709 WT1      4716     TIP3     H2       HT       0.417000        1.0080           0
     14710 WT1      4717     TIP3     OH2      OT      -0.834000       15.9994           0
     14711 WT1      4717     TIP3     H1       HT       0.417000        1.0080           0
     14712 WT1      4717     TIP3     H2       HT       0.417000        1.0080           0
     14713 WT1      4718     TIP3     OH2      OT      -0.834000       15.9994           0
     14714 WT1      4718     TIP3     H1       HT       0.417000        1.0080           0
     14715 WT1      4718     TIP3     H2       HT       0.417000        1.0080           0
     14716 WT1      4719     TIP3     OH2      OT      -0.834000       15.9994           0
     14717 WT1      4719     TIP3     H1       HT       0.417000        1.0080           0
     14718 WT1      4719     TIP3     H2       HT       0.417000        1.0080           0
     14719 WT1      4720     TIP3     OH2      OT      -0.834000       15.9994           0
     14720 WT1      4720     TIP3     H1       HT       0.417000        1.0080           0
     14721 WT1      4720     TIP3     H2       HT       0.417000        1.0080           0
     14722 WT1      4721     TIP3     OH2      OT      -0.834000       15.9994           0
     14723 WT1      4721     TIP3     H1       HT       0.417000        1.0080           0
     14724 WT1      4721     TIP3     H2       HT       0.417000        1.0080           0
     14725 WT1      4722     TIP3     OH2      OT      -0.834000       15.9994           0
     14726 WT1      4722     TIP3     H1       HT       0.417000        1.0080           0
     14727 WT1      4722     TIP3     H2       HT       0.417000        1.0080           0
     14728 WT1      4723     TIP3     OH2      OT      -0.834000       15.9994           0
     14729 WT1      4723     TIP3     H1       HT       0.417000        1.0080           0
     14730 WT1      4723     TIP3     H2       HT       0.417000        1.0080           0
     14731 WT1      4724     TIP3     OH2      OT      -0.834000       15.9994           0
     14732 WT1      4724     TIP3     H1       HT       0.417000        1.0080           0
     14733 WT1      4724     TIP3     H2       HT       0.417000        1.0080           0
     14734 WT1      4725     TIP3     OH2      OT      -0.834000       15.9994           0
     14735 WT1      4725     TIP3     H1       HT       0.417000        1.0080           0
     14736 WT1      4725     TIP3     H2       HT       0.417000        1.0080           0
     14737 WT1      4726     TIP3     OH2      OT      -0.834000       15.9994           0
     14738 WT1      4726     TIP3     H1       HT       0.417000        1.0080           0
     14739 WT1      4726     TIP3     H2       HT       0.417000        1.0080           0
     14740 WT1      4727     TIP3     OH2      OT      -0.834000       15.9994           0
     14741 WT1      4727     TIP3     H1       HT       0.417000        1.0080           0
     14742 WT1      4727     TIP3     H2       HT       0.417000        1.0080           0
     14743 WT1      4728     TIP3     OH2      OT      -0.834000       15.9994           0
     14744 WT1      4728     TIP3     H1       HT       0.417000        1.0080           0
     14745 WT1      4728     TIP3     H2       HT       0.417000        1.0080           0
     14746 WT1      4729     TIP3     OH2      OT      -0.834000       15.9994           0
     14747 WT1      4729     TIP3     H1       HT       0.417000        1.0080           0
     14748 WT1      4729     TIP3     H2       HT       0.417000        1.0080           0
     14749 WT1      4730     TIP3     OH2      OT      -0.834000       15.9994           0
     14750 WT1      4730     TIP3     H1       HT       0.417000        1.0080           0
     14751 WT1      4730     TIP3     H2       HT       0.417000        1.0080           0
     14752 WT1      4731     TIP3     OH2      OT      -0.834000       15.9994           0
     14753 WT1      4731     TIP3     H1       HT       0.417000        1.0080           0
     14754 WT1      4731     TIP3     H2       HT       0.417000        1.0080           0
     14755 WT1      4732     TIP3     OH2      OT      -0.834000       15.9994           0
     14756 WT1      4732     TIP3     H1       HT       0.417000        1.0080           0
     14757 WT1      4732     TIP3     H2       HT       0.417000        1.0080           0
     14758 WT1      4733     TIP3     OH2      OT      -0.834000       15.9994           0
     14759 WT1      4733     TIP3     H1       HT       0.417000        1.0080           0
     14760 WT1      4733     TIP3     H2       HT       0.417000        1.0080           0
     14761 WT1      4734     TIP3     OH2      OT      -0.834000       15.9994           0
     14762 WT1      4734     TIP3     H1       HT       0.417000        1.0080           0
     14763 WT1      4734     TIP3     H2       HT       0.417000        1.0080           0
     14764 WT1      4735     TIP3     OH2      OT      -0.834000       15.9994           0
     14765 WT1      4735     TIP3     H1       HT       0.417000        1.0080           0
     14766 WT1      4735     TIP3     H2       HT       0.417000        1.0080           0
     14767 WT1      4736     TIP3     OH2      OT      -0.834000       15.9994           0
     14768 WT1      4736     TIP3     H1       HT       0.417000        1.0080           0
     14769 WT1      4736     TIP3     H2       HT       0.417000        1.0080           0
     14770 WT1      4737     TIP3     OH2      OT      -0.834000       15.9994           0
     14771 WT1      4737     TIP3     H1       HT       0.417000        1.0080           0
     14772 WT1      4737     TIP3     H2       HT       0.417000        1.0080           0
     14773 WT1      4738     TIP3     OH2      OT      -0.834000       15.9994           0
     14774 WT1      4738     TIP3     H1       HT       0.417000        1.0080           0
     14775 WT1      4738     TIP3     H2       HT       0.417000        1.0080           0
     14776 WT1      4739     TIP3     OH2      OT      -0.834000       15.9994           0
     14777 WT1      4739     TIP3     H1       HT       0.417000        1.0080           0
     14778 WT1      4739     TIP3     H2       HT       0.417000        1.0080           0
     14779 WT1      4740     TIP3     OH2      OT      -0.834000       15.9994           0
     14780 WT1      4740     TIP3     H1       HT       0.417000        1.0080           0
     14781 WT1      4740     TIP3     H2       HT       0.417000        1.0080           0
     14782 WT1      4741     TIP3     OH2      OT      -0.834000       15.9994           0
     14783 WT1      4741     TIP3     H1       HT       0.417000        1.0080           0
     14784 WT1      4741     TIP3     H2       HT       0.417000        1.0080           0
     14785 WT1      4743     TIP3     OH2      OT      -0.834000       15.9994           0
     14786 WT1      4743     TIP3     H1       HT       0.417000        1.0080           0
     14787 WT1      4743     TIP3     H2       HT       0.417000        1.0080           0
     14788 WT1      4744     TIP3     OH2      OT      -0.834000       15.9994           0
     14789 WT1      4744     TIP3     H1       HT       0.417000        1.0080           0
     14790 WT1      4744     TIP3     H2       HT       0.417000        1.0080           0
     14791 WT1      4745     TIP3     OH2      OT      -0.834000       15.9994           0
     14792 WT1      4745     TIP3     H1       HT       0.417000        1.0080           0
     14793 WT1      4745     TIP3     H2       HT       0.417000        1.0080           0
     14794 WT1      4746     TIP3     OH2      OT      -0.834000       15.9994           0
     14795 WT1      4746     TIP3     H1       HT       0.417000        1.0080           0
     14796 WT1      4746     TIP3     H2       HT       0.417000        1.0080           0
     14797 WT1      4747     TIP3     OH2      OT      -0.834000       15.9994           0
     14798 WT1      4747     TIP3     H1       HT       0.417000        1.0080           0
     14799 WT1      4747     TIP3     H2       HT       0.417000        1.0080           0
     14800 WT1      4748     TIP3     OH2      OT      -0.834000       15.9994           0
     14801 WT1      4748     TIP3     H1       HT       0.417000        1.0080           0
     14802 WT1      4748     TIP3     H2       HT       0.417000        1.0080           0
     14803 WT1      4749     TIP3     OH2      OT      -0.834000       15.9994           0
     14804 WT1      4749     TIP3     H1       HT       0.417000        1.0080           0
     14805 WT1      4749     TIP3     H2       HT       0.417000        1.0080           0
     14806 WT1      4750     TIP3     OH2      OT      -0.834000       15.9994           0
     14807 WT1      4750     TIP3     H1       HT       0.417000        1.0080           0
     14808 WT1      4750     TIP3     H2       HT       0.417000        1.0080           0
     14809 WT1      4751     TIP3     OH2      OT      -0.834000       15.9994           0
     14810 WT1      4751     TIP3     H1       HT       0.417000        1.0080           0
     14811 WT1      4751     TIP3     H2       HT       0.417000        1.0080           0
     14812 WT1      4752     TIP3     OH2      OT      -0.834000       15.9994           0
     14813 WT1      4752     TIP3     H1       HT       0.417000        1.0080           0
     14814 WT1      4752     TIP3     H2       HT       0.417000        1.0080           0
     14815 WT1      4753     TIP3     OH2      OT      -0.834000       15.9994           0
     14816 WT1      4753     TIP3     H1       HT       0.417000        1.0080           0
     14817 WT1      4753     TIP3     H2       HT       0.417000        1.0080           0
     14818 WT1      4754     TIP3     OH2      OT      -0.834000       15.9994           0
     14819 WT1      4754     TIP3     H1       HT       0.417000        1.0080           0
     14820 WT1      4754     TIP3     H2       HT       0.417000        1.0080           0
     14821 WT1      4755     TIP3     OH2      OT      -0.834000       15.9994           0
     14822 WT1      4755     TIP3     H1       HT       0.417000        1.0080           0
     14823 WT1      4755     TIP3     H2       HT       0.417000        1.0080           0
     14824 WT1      4756     TIP3     OH2      OT      -0.834000       15.9994           0
     14825 WT1      4756     TIP3     H1       HT       0.417000        1.0080           0
     14826 WT1      4756     TIP3     H2       HT       0.417000        1.0080           0
     14827 WT1      4757     TIP3     OH2      OT      -0.834000       15.9994           0
     14828 WT1      4757     TIP3     H1       HT       0.417000        1.0080           0
     14829 WT1      4757     TIP3     H2       HT       0.417000        1.0080           0
     14830 WT1      4758     TIP3     OH2      OT      -0.834000       15.9994           0
     14831 WT1      4758     TIP3     H1       HT       0.417000        1.0080           0
     14832 WT1      4758     TIP3     H2       HT       0.417000        1.0080           0
     14833 WT1      4759     TIP3     OH2      OT      -0.834000       15.9994           0
     14834 WT1      4759     TIP3     H1       HT       0.417000        1.0080           0
     14835 WT1      4759     TIP3     H2       HT       0.417000        1.0080           0
     14836 WT1      4760     TIP3     OH2      OT      -0.834000       15.9994           0
     14837 WT1      4760     TIP3     H1       HT       0.417000        1.0080           0
     14838 WT1      4760     TIP3     H2       HT       0.417000        1.0080           0
     14839 WT1      4761     TIP3     OH2      OT      -0.834000       15.9994           0
     14840 WT1      4761     TIP3     H1       HT       0.417000        1.0080           0
     14841 WT1      4761     TIP3     H2       HT       0.417000        1.0080           0
     14842 WT1      4762     TIP3     OH2      OT      -0.834000       15.9994           0
     14843 WT1      4762     TIP3     H1       HT       0.417000        1.0080           0
     14844 WT1      4762     TIP3     H2       HT       0.417000        1.0080           0
     14845 WT1      4763     TIP3     OH2      OT      -0.834000       15.9994           0
     14846 WT1      4763     TIP3     H1       HT       0.417000        1.0080           0
     14847 WT1      4763     TIP3     H2       HT       0.417000        1.0080           0
     14848 WT1      4764     TIP3     OH2      OT      -0.834000       15.9994           0
     14849 WT1      4764     TIP3     H1       HT       0.417000        1.0080           0
     14850 WT1      4764     TIP3     H2       HT       0.417000        1.0080           0
     14851 WT1      4765     TIP3     OH2      OT      -0.834000       15.9994           0
     14852 WT1      4765     TIP3     H1       HT       0.417000        1.0080           0
     14853 WT1      4765     TIP3     H2       HT       0.417000        1.0080           0
     14854 WT1      4766     TIP3     OH2      OT      -0.834000       15.9994           0
     14855 WT1      4766     TIP3     H1       HT       0.417000        1.0080           0
     14856 WT1      4766     TIP3     H2       HT       0.417000        1.0080           0
     14857 WT1      4767     TIP3     OH2      OT      -0.834000       15.9994           0
     14858 WT1      4767     TIP3     H1       HT       0.417000        1.0080           0
     14859 WT1      4767     TIP3     H2       HT       0.417000        1.0080           0
     14860 WT1      4768     TIP3     OH2      OT      -0.834000       15.9994           0
     14861 WT1      4768     TIP3     H1       HT       0.417000        1.0080           0
     14862 WT1      4768     TIP3     H2       HT       0.417000        1.0080           0
     14863 WT1      4769     TIP3     OH2      OT      -0.834000       15.9994           0
     14864 WT1      4769     TIP3     H1       HT       0.417000        1.0080           0
     14865 WT1      4769     TIP3     H2       HT       0.417000        1.0080           0
     14866 WT1      4770     TIP3     OH2      OT      -0.834000       15.9994           0
     14867 WT1      4770     TIP3     H1       HT       0.417000        1.0080           0
     14868 WT1      4770     TIP3     H2       HT       0.417000        1.0080           0
     14869 WT1      4771     TIP3     OH2      OT      -0.834000       15.9994           0
     14870 WT1      4771     TIP3     H1       HT       0.417000        1.0080           0
     14871 WT1      4771     TIP3     H2       HT       0.417000        1.0080           0
     14872 WT1      4772     TIP3     OH2      OT      -0.834000       15.9994           0
     14873 WT1      4772     TIP3     H1       HT       0.417000        1.0080           0
     14874 WT1      4772     TIP3     H2       HT       0.417000        1.0080           0
     14875 WT1      4773     TIP3     OH2      OT      -0.834000       15.9994           0
     14876 WT1      4773     TIP3     H1       HT       0.417000        1.0080           0
     14877 WT1      4773     TIP3     H2       HT       0.417000        1.0080           0
     14878 WT1      4774     TIP3     OH2      OT      -0.834000       15.9994           0
     14879 WT1      4774     TIP3     H1       HT       0.417000        1.0080           0
     14880 WT1      4774     TIP3     H2       HT       0.417000        1.0080           0
     14881 WT1      4775     TIP3     OH2      OT      -0.834000       15.9994           0
     14882 WT1      4775     TIP3     H1       HT       0.417000        1.0080           0
     14883 WT1      4775     TIP3     H2       HT       0.417000        1.0080           0
     14884 WT1      4776     TIP3     OH2      OT      -0.834000       15.9994           0
     14885 WT1      4776     TIP3     H1       HT       0.417000        1.0080           0
     14886 WT1      4776     TIP3     H2       HT       0.417000        1.0080           0
     14887 WT1      4777     TIP3     OH2      OT      -0.834000       15.9994           0
     14888 WT1      4777     TIP3     H1       HT       0.417000        1.0080           0
     14889 WT1      4777     TIP3     H2       HT       0.417000        1.0080           0
     14890 WT1      4779     TIP3     OH2      OT      -0.834000       15.9994           0
     14891 WT1      4779     TIP3     H1       HT       0.417000        1.0080           0
     14892 WT1      4779     TIP3     H2       HT       0.417000        1.0080           0
     14893 WT1      4780     TIP3     OH2      OT      -0.834000       15.9994           0
     14894 WT1      4780     TIP3     H1       HT       0.417000        1.0080           0
     14895 WT1      4780     TIP3     H2       HT       0.417000        1.0080           0
     14896 WT1      4781     TIP3     OH2      OT      -0.834000       15.9994           0
     14897 WT1      4781     TIP3     H1       HT       0.417000        1.0080           0
     14898 WT1      4781     TIP3     H2       HT       0.417000        1.0080           0
     14899 WT1      4782     TIP3     OH2      OT      -0.834000       15.9994           0
     14900 WT1      4782     TIP3     H1       HT       0.417000        1.0080           0
     14901 WT1      4782     TIP3     H2       HT       0.417000        1.0080           0
     14902 WT1      4783     TIP3     OH2      OT      -0.834000       15.9994           0
     14903 WT1      4783     TIP3     H1       HT       0.417000        1.0080           0
     14904 WT1      4783     TIP3     H2       HT       0.417000        1.0080           0
     14905 WT1      4784     TIP3     OH2      OT      -0.834000       15.9994           0
     14906 WT1      4784     TIP3     H1       HT       0.417000        1.0080           0
     14907 WT1      4784     TIP3     H2       HT       0.417000        1.0080           0
     14908 WT1      4785     TIP3     OH2      OT      -0.834000       15.9994           0
     14909 WT1      4785     TIP3     H1       HT       0.417000        1.0080           0
     14910 WT1      4785     TIP3     H2       HT       0.417000        1.0080           0
     14911 WT1      4786     TIP3     OH2      OT      -0.834000       15.9994           0
     14912 WT1      4786     TIP3     H1       HT       0.417000        1.0080           0
     14913 WT1      4786     TIP3     H2       HT       0.417000        1.0080           0
     14914 WT1      4787     TIP3     OH2      OT      -0.834000       15.9994           0
     14915 WT1      4787     TIP3     H1       HT       0.417000        1.0080           0
     14916 WT1      4787     TIP3     H2       HT       0.417000        1.0080           0
     14917 WT1      4788     TIP3     OH2      OT      -0.834000       15.9994           0
     14918 WT1      4788     TIP3     H1       HT       0.417000        1.0080           0
     14919 WT1      4788     TIP3     H2       HT       0.417000        1.0080           0
     14920 WT1      4789     TIP3     OH2      OT      -0.834000       15.9994           0
     14921 WT1      4789     TIP3     H1       HT       0.417000        1.0080           0
     14922 WT1      4789     TIP3     H2       HT       0.417000        1.0080           0
     14923 WT1      4790     TIP3     OH2      OT      -0.834000       15.9994           0
     14924 WT1      4790     TIP3     H1       HT       0.417000        1.0080           0
     14925 WT1      4790     TIP3     H2       HT       0.417000        1.0080           0
     14926 WT1      4791     TIP3     OH2      OT      -0.834000       15.9994           0
     14927 WT1      4791     TIP3     H1       HT       0.417000        1.0080           0
     14928 WT1      4791     TIP3     H2       HT       0.417000        1.0080           0
     14929 WT1      4792     TIP3     OH2      OT      -0.834000       15.9994           0
     14930 WT1      4792     TIP3     H1       HT       0.417000        1.0080           0
     14931 WT1      4792     TIP3     H2       HT       0.417000        1.0080           0
     14932 WT1      4793     TIP3     OH2      OT      -0.834000       15.9994           0
     14933 WT1      4793     TIP3     H1       HT       0.417000        1.0080           0
     14934 WT1      4793     TIP3     H2       HT       0.417000        1.0080           0
     14935 WT1      4794     TIP3     OH2      OT      -0.834000       15.9994           0
     14936 WT1      4794     TIP3     H1       HT       0.417000        1.0080           0
     14937 WT1      4794     TIP3     H2       HT       0.417000        1.0080           0
     14938 WT1      4795     TIP3     OH2      OT      -0.834000       15.9994           0
     14939 WT1      4795     TIP3     H1       HT       0.417000        1.0080           0
     14940 WT1      4795     TIP3     H2       HT       0.417000        1.0080           0
     14941 WT1      4796     TIP3     OH2      OT      -0.834000       15.9994           0
     14942 WT1      4796     TIP3     H1       HT       0.417000        1.0080           0
     14943 WT1      4796     TIP3     H2       HT       0.417000        1.0080           0
     14944 WT1      4797     TIP3     OH2      OT      -0.834000       15.9994           0
     14945 WT1      4797     TIP3     H1       HT       0.417000        1.0080           0
     14946 WT1      4797     TIP3     H2       HT       0.417000        1.0080           0
     14947 WT1      4798     TIP3     OH2      OT      -0.834000       15.9994           0
     14948 WT1      4798     TIP3     H1       HT       0.417000        1.0080           0
     14949 WT1      4798     TIP3     H2       HT       0.417000        1.0080           0
     14950 WT1      4799     TIP3     OH2      OT      -0.834000       15.9994           0
     14951 WT1      4799     TIP3     H1       HT       0.417000        1.0080           0
     14952 WT1      4799     TIP3     H2       HT       0.417000        1.0080           0
     14953 WT1      4800     TIP3     OH2      OT      -0.834000       15.9994           0
     14954 WT1      4800     TIP3     H1       HT       0.417000        1.0080           0
     14955 WT1      4800     TIP3     H2       HT       0.417000        1.0080           0
     14956 WT1      4801     TIP3     OH2      OT      -0.834000       15.9994           0
     14957 WT1      4801     TIP3     H1       HT       0.417000        1.0080           0
     14958 WT1      4801     TIP3     H2       HT       0.417000        1.0080           0
     14959 WT1      4802     TIP3     OH2      OT      -0.834000       15.9994           0
     14960 WT1      4802     TIP3     H1       HT       0.417000        1.0080           0
     14961 WT1      4802     TIP3     H2       HT       0.417000        1.0080           0
     14962 WT1      4803     TIP3     OH2      OT      -0.834000       15.9994           0
     14963 WT1      4803     TIP3     H1       HT       0.417000        1.0080           0
     14964 WT1      4803     TIP3     H2       HT       0.417000        1.0080           0
     14965 WT1      4804     TIP3     OH2      OT      -0.834000       15.9994           0
     14966 WT1      4804     TIP3     H1       HT       0.417000        1.0080           0
     14967 WT1      4804     TIP3     H2       HT       0.417000        1.0080           0
     14968 WT1      4805     TIP3     OH2      OT      -0.834000       15.9994           0
     14969 WT1      4805     TIP3     H1       HT       0.417000        1.0080           0
     14970 WT1      4805     TIP3     H2       HT       0.417000        1.0080           0
     14971 WT1      4806     TIP3     OH2      OT      -0.834000       15.9994           0
     14972 WT1      4806     TIP3     H1       HT       0.417000        1.0080           0
     14973 WT1      4806     TIP3     H2       HT       0.417000        1.0080           0
     14974 WT1      4807     TIP3     OH2      OT      -0.834000       15.9994           0
     14975 WT1      4807     TIP3     H1       HT       0.417000        1.0080           0
     14976 WT1      4807     TIP3     H2       HT       0.417000        1.0080           0
     14977 WT1      4808     TIP3     OH2      OT      -0.834000       15.9994           0
     14978 WT1      4808     TIP3     H1       HT       0.417000        1.0080           0
     14979 WT1      4808     TIP3     H2       HT       0.417000        1.0080           0
     14980 WT1      4809     TIP3     OH2      OT      -0.834000       15.9994           0
     14981 WT1      4809     TIP3     H1       HT       0.417000        1.0080           0
     14982 WT1      4809     TIP3     H2       HT       0.417000        1.0080           0
     14983 WT1      4810     TIP3     OH2      OT      -0.834000       15.9994           0
     14984 WT1      4810     TIP3     H1       HT       0.417000        1.0080           0
     14985 WT1      4810     TIP3     H2       HT       0.417000        1.0080           0
     14986 WT1      4811     TIP3     OH2      OT      -0.834000       15.9994           0
     14987 WT1      4811     TIP3     H1       HT       0.417000        1.0080           0
     14988 WT1      4811     TIP3     H2       HT       0.417000        1.0080           0
     14989 WT1      4812     TIP3     OH2      OT      -0.834000       15.9994           0
     14990 WT1      4812     TIP3     H1       HT       0.417000        1.0080           0
     14991 WT1      4812     TIP3     H2       HT       0.417000        1.0080           0
     14992 WT1      4813     TIP3     OH2      OT      -0.834000       15.9994           0
     14993 WT1      4813     TIP3     H1       HT       0.417000        1.0080           0
     14994 WT1      4813     TIP3     H2       HT       0.417000        1.0080           0
     14995 WT1      4814     TIP3     OH2      OT      -0.834000       15.9994           0
     14996 WT1      4814     TIP3     H1       HT       0.417000        1.0080           0
     14997 WT1      4814     TIP3     H2       HT       0.417000        1.0080           0
     14998 WT1      4815     TIP3     OH2      OT      -0.834000       15.9994           0
     14999 WT1      4815     TIP3     H1       HT       0.417000        1.0080           0
     15000 WT1      4815     TIP3     H2       HT       0.417000        1.0080           0
     15001 WT1      4816     TIP3     OH2      OT      -0.834000       15.9994           0
     15002 WT1      4816     TIP3     H1       HT       0.417000        1.0080           0
     15003 WT1      4816     TIP3     H2       HT       0.417000        1.0080           0
     15004 WT1      4817     TIP3     OH2      OT      -0.834000       15.9994           0
     15005 WT1      4817     TIP3     H1       HT       0.417000        1.0080           0
     15006 WT1      4817     TIP3     H2       HT       0.417000        1.0080           0
     15007 WT1      4818     TIP3     OH2      OT      -0.834000       15.9994           0
     15008 WT1      4818     TIP3     H1       HT       0.417000        1.0080           0
     15009 WT1      4818     TIP3     H2       HT       0.417000        1.0080           0
     15010 WT1      4819     TIP3     OH2      OT      -0.834000       15.9994           0
     15011 WT1      4819     TIP3     H1       HT       0.417000        1.0080           0
     15012 WT1      4819     TIP3     H2       HT       0.417000        1.0080           0
     15013 WT1      4820     TIP3     OH2      OT      -0.834000       15.9994           0
     15014 WT1      4820     TIP3     H1       HT       0.417000        1.0080           0
     15015 WT1      4820     TIP3     H2       HT       0.417000        1.0080           0
     15016 WT1      4821     TIP3     OH2      OT      -0.834000       15.9994           0
     15017 WT1      4821     TIP3     H1       HT       0.417000        1.0080           0
     15018 WT1      4821     TIP3     H2       HT       0.417000        1.0080           0
     15019 WT1      4822     TIP3     OH2      OT      -0.834000       15.9994           0
     15020 WT1      4822     TIP3     H1       HT       0.417000        1.0080           0
     15021 WT1      4822     TIP3     H2       HT       0.417000        1.0080           0
     15022 WT1      4823     TIP3     OH2      OT      -0.834000       15.9994           0
     15023 WT1      4823     TIP3     H1       HT       0.417000        1.0080           0
     15024 WT1      4823     TIP3     H2       HT       0.417000        1.0080           0
     15025 WT1      4824     TIP3     OH2      OT      -0.834000       15.9994           0
     15026 WT1      4824     TIP3     H1       HT       0.417000        1.0080           0
     15027 WT1      4824     TIP3     H2       HT       0.417000        1.0080           0
     15028 WT1      4825     TIP3     OH2      OT      -0.834000       15.9994           0
     15029 WT1      4825     TIP3     H1       HT       0.417000        1.0080           0
     15030 WT1      4825     TIP3     H2       HT       0.417000        1.0080           0
     15031 WT1      4826     TIP3     OH2      OT      -0.834000       15.9994           0
     15032 WT1      4826     TIP3     H1       HT       0.417000        1.0080           0
     15033 WT1      4826     TIP3     H2       HT       0.417000        1.0080           0
     15034 WT1      4827     TIP3     OH2      OT      -0.834000       15.9994           0
     15035 WT1      4827     TIP3     H1       HT       0.417000        1.0080           0
     15036 WT1      4827     TIP3     H2       HT       0.417000        1.0080           0
     15037 WT1      4828     TIP3     OH2      OT      -0.834000       15.9994           0
     15038 WT1      4828     TIP3     H1       HT       0.417000        1.0080           0
     15039 WT1      4828     TIP3     H2       HT       0.417000        1.0080           0
     15040 WT1      4829     TIP3     OH2      OT      -0.834000       15.9994           0
     15041 WT1      4829     TIP3     H1       HT       0.417000        1.0080           0
     15042 WT1      4829     TIP3     H2       HT       0.417000        1.0080           0
     15043 WT1      4830     TIP3     OH2      OT      -0.834000       15.9994           0
     15044 WT1      4830     TIP3     H1       HT       0.417000        1.0080           0
     15045 WT1      4830     TIP3     H2       HT       0.417000        1.0080           0
     15046 WT1      4831     TIP3     OH2      OT      -0.834000       15.9994           0
     15047 WT1      4831     TIP3     H1       HT       0.417000        1.0080           0
     15048 WT1      4831     TIP3     H2       HT       0.417000        1.0080           0
     15049 WT1      4832     TIP3     OH2      OT      -0.834000       15.9994           0
     15050 WT1      4832     TIP3     H1       HT       0.417000        1.0080           0
     15051 WT1      4832     TIP3     H2       HT       0.417000        1.0080           0
     15052 WT1      4833     TIP3     OH2      OT      -0.834000       15.9994           0
     15053 WT1      4833     TIP3     H1       HT       0.417000        1.0080           0
     15054 WT1      4833     TIP3     H2       HT       0.417000        1.0080           0
     15055 WT1      4834     TIP3     OH2      OT      -0.834000       15.9994           0
     15056 WT1      4834     TIP3     H1       HT       0.417000        1.0080           0
     15057 WT1      4834     TIP3     H2       HT       0.417000        1.0080           0
     15058 WT1      4835     TIP3     OH2      OT      -0.834000       15.9994           0
     15059 WT1      4835     TIP3     H1       HT       0.417000        1.0080           0
     15060 WT1      4835     TIP3     H2       HT       0.417000        1.0080           0
     15061 WT1      4836     TIP3     OH2      OT      -0.834000       15.9994           0
     15062 WT1      4836     TIP3     H1       HT       0.417000        1.0080           0
     15063 WT1      4836     TIP3     H2       HT       0.417000        1.0080           0
     15064 WT1      4837     TIP3     OH2      OT      -0.834000       15.9994           0
     15065 WT1      4837     TIP3     H1       HT       0.417000        1.0080           0
     15066 WT1      4837     TIP3     H2       HT       0.417000        1.0080           0
     15067 WT1      4838     TIP3     OH2      OT      -0.834000       15.9994           0
     15068 WT1      4838     TIP3     H1       HT       0.417000        1.0080           0
     15069 WT1      4838     TIP3     H2       HT       0.417000        1.0080           0
     15070 WT1      4839     TIP3     OH2      OT      -0.834000       15.9994           0
     15071 WT1      4839     TIP3     H1       HT       0.417000        1.0080           0
     15072 WT1      4839     TIP3     H2       HT       0.417000        1.0080           0
     15073 WT1      4840     TIP3     OH2      OT      -0.834000       15.9994           0
     15074 WT1      4840     TIP3     H1       HT       0.417000        1.0080           0
     15075 WT1      4840     TIP3     H2       HT       0.417000        1.0080           0
     15076 WT1      4841     TIP3     OH2      OT      -0.834000       15.9994           0
     15077 WT1      4841     TIP3     H1       HT       0.417000        1.0080           0
     15078 WT1      4841     TIP3     H2       HT       0.417000        1.0080           0
     15079 WT1      4842     TIP3     OH2      OT      -0.834000       15.9994           0
     15080 WT1      4842     TIP3     H1       HT       0.417000        1.0080           0
     15081 WT1      4842     TIP3     H2       HT       0.417000        1.0080           0
     15082 WT1      4843     TIP3     OH2      OT      -0.834000       15.9994           0
     15083 WT1      4843     TIP3     H1       HT       0.417000        1.0080           0
     15084 WT1      4843     TIP3     H2       HT       0.417000        1.0080           0
     15085 WT1      4844     TIP3     OH2      OT      -0.834000       15.9994           0
     15086 WT1      4844     TIP3     H1       HT       0.417000        1.0080           0
     15087 WT1      4844     TIP3     H2       HT       0.417000        1.0080           0
     15088 WT1      4845     TIP3     OH2      OT      -0.834000       15.9994           0
     15089 WT1      4845     TIP3     H1       HT       0.417000        1.0080           0
     15090 WT1      4845     TIP3     H2       HT       0.417000        1.0080           0
     15091 WT1      4846     TIP3     OH2      OT      -0.834000       15.9994           0
     15092 WT1      4846     TIP3     H1       HT       0.417000        1.0080           0
     15093 WT1      4846     TIP3     H2       HT       0.417000        1.0080           0
     15094 WT1      4847     TIP3     OH2      OT      -0.834000       15.9994           0
     15095 WT1      4847     TIP3     H1       HT       0.417000        1.0080           0
     15096 WT1      4847     TIP3     H2       HT       0.417000        1.0080           0
     15097 WT1      4848     TIP3     OH2      OT      -0.834000       15.9994           0
     15098 WT1      4848     TIP3     H1       HT       0.417000        1.0080           0
     15099 WT1      4848     TIP3     H2       HT       0.417000        1.0080           0
     15100 WT1      4849     TIP3     OH2      OT      -0.834000       15.9994           0
     15101 WT1      4849     TIP3     H1       HT       0.417000        1.0080           0
     15102 WT1      4849     TIP3     H2       HT       0.417000        1.0080           0
     15103 WT1      4850     TIP3     OH2      OT      -0.834000       15.9994           0
     15104 WT1      4850     TIP3     H1       HT       0.417000        1.0080           0
     15105 WT1      4850     TIP3     H2       HT       0.417000        1.0080           0
     15106 WT1      4851     TIP3     OH2      OT      -0.834000       15.9994           0
     15107 WT1      4851     TIP3     H1       HT       0.417000        1.0080           0
     15108 WT1      4851     TIP3     H2       HT       0.417000        1.0080           0
     15109 WT1      4852     TIP3     OH2      OT      -0.834000       15.9994           0
     15110 WT1      4852     TIP3     H1       HT       0.417000        1.0080           0
     15111 WT1      4852     TIP3     H2       HT       0.417000        1.0080           0
     15112 WT1      4853     TIP3     OH2      OT      -0.834000       15.9994           0
     15113 WT1      4853     TIP3     H1       HT       0.417000        1.0080           0
     15114 WT1      4853     TIP3     H2       HT       0.417000        1.0080           0
     15115 WT1      4854     TIP3     OH2      OT      -0.834000       15.9994           0
     15116 WT1      4854     TIP3     H1       HT       0.417000        1.0080           0
     15117 WT1      4854     TIP3     H2       HT       0.417000        1.0080           0
     15118 WT1      4855     TIP3     OH2      OT      -0.834000       15.9994           0
     15119 WT1      4855     TIP3     H1       HT       0.417000        1.0080           0
     15120 WT1      4855     TIP3     H2       HT       0.417000        1.0080           0
     15121 WT1      4856     TIP3     OH2      OT      -0.834000       15.9994           0
     15122 WT1      4856     TIP3     H1       HT       0.417000        1.0080           0
     15123 WT1      4856     TIP3     H2       HT       0.417000        1.0080           0
     15124 WT1      4857     TIP3     OH2      OT      -0.834000       15.9994           0
     15125 WT1      4857     TIP3     H1       HT       0.417000        1.0080           0
     15126 WT1      4857     TIP3     H2       HT       0.417000        1.0080           0
     15127 WT1      4858     TIP3     OH2      OT      -0.834000       15.9994           0
     15128 WT1      4858     TIP3     H1       HT       0.417000        1.0080           0
     15129 WT1      4858     TIP3     H2       HT       0.417000        1.0080           0
     15130 WT1      4859     TIP3     OH2      OT      -0.834000       15.9994           0
     15131 WT1      4859     TIP3     H1       HT       0.417000        1.0080           0
     15132 WT1      4859     TIP3     H2       HT       0.417000        1.0080           0
     15133 WT1      4860     TIP3     OH2      OT      -0.834000       15.9994           0
     15134 WT1      4860     TIP3     H1       HT       0.417000        1.0080           0
     15135 WT1      4860     TIP3     H2       HT       0.417000        1.0080           0
     15136 WT1      4861     TIP3     OH2      OT      -0.834000       15.9994           0
     15137 WT1      4861     TIP3     H1       HT       0.417000        1.0080           0
     15138 WT1      4861     TIP3     H2       HT       0.417000        1.0080           0
     15139 WT1      4862     TIP3     OH2      OT      -0.834000       15.9994           0
     15140 WT1      4862     TIP3     H1       HT       0.417000        1.0080           0
     15141 WT1      4862     TIP3     H2       HT       0.417000        1.0080           0
     15142 WT1      4863     TIP3     OH2      OT      -0.834000       15.9994           0
     15143 WT1      4863     TIP3     H1       HT       0.417000        1.0080           0
     15144 WT1      4863     TIP3     H2       HT       0.417000        1.0080           0
     15145 WT1      4864     TIP3     OH2      OT      -0.834000       15.9994           0
     15146 WT1      4864     TIP3     H1       HT       0.417000        1.0080           0
     15147 WT1      4864     TIP3     H2       HT       0.417000        1.0080           0
     15148 WT1      4865     TIP3     OH2      OT      -0.834000       15.9994           0
     15149 WT1      4865     TIP3     H1       HT       0.417000        1.0080           0
     15150 WT1      4865     TIP3     H2       HT       0.417000        1.0080           0
     15151 WT1      4866     TIP3     OH2      OT      -0.834000       15.9994           0
     15152 WT1      4866     TIP3     H1       HT       0.417000        1.0080           0
     15153 WT1      4866     TIP3     H2       HT       0.417000        1.0080           0
     15154 WT1      4867     TIP3     OH2      OT      -0.834000       15.9994           0
     15155 WT1      4867     TIP3     H1       HT       0.417000        1.0080           0
     15156 WT1      4867     TIP3     H2       HT       0.417000        1.0080           0
     15157 WT1      4868     TIP3     OH2      OT      -0.834000       15.9994           0
     15158 WT1      4868     TIP3     H1       HT       0.417000        1.0080           0
     15159 WT1      4868     TIP3     H2       HT       0.417000        1.0080           0
     15160 WT1      4869     TIP3     OH2      OT      -0.834000       15.9994           0
     15161 WT1      4869     TIP3     H1       HT       0.417000        1.0080           0
     15162 WT1      4869     TIP3     H2       HT       0.417000        1.0080           0
     15163 WT1      4870     TIP3     OH2      OT      -0.834000       15.9994           0
     15164 WT1      4870     TIP3     H1       HT       0.417000        1.0080           0
     15165 WT1      4870     TIP3     H2       HT       0.417000        1.0080           0
     15166 WT1      4871     TIP3     OH2      OT      -0.834000       15.9994           0
     15167 WT1      4871     TIP3     H1       HT       0.417000        1.0080           0
     15168 WT1      4871     TIP3     H2       HT       0.417000        1.0080           0
     15169 WT1      4872     TIP3     OH2      OT      -0.834000       15.9994           0
     15170 WT1      4872     TIP3     H1       HT       0.417000        1.0080           0
     15171 WT1      4872     TIP3     H2       HT       0.417000        1.0080           0
     15172 WT1      4873     TIP3     OH2      OT      -0.834000       15.9994           0
     15173 WT1      4873     TIP3     H1       HT       0.417000        1.0080           0
     15174 WT1      4873     TIP3     H2       HT       0.417000        1.0080           0
     15175 WT1      4874     TIP3     OH2      OT      -0.834000       15.9994           0
     15176 WT1      4874     TIP3     H1       HT       0.417000        1.0080           0
     15177 WT1      4874     TIP3     H2       HT       0.417000        1.0080           0
     15178 WT1      4875     TIP3     OH2      OT      -0.834000       15.9994           0
     15179 WT1      4875     TIP3     H1       HT       0.417000        1.0080           0
     15180 WT1      4875     TIP3     H2       HT       0.417000        1.0080           0
     15181 WT1      4876     TIP3     OH2      OT      -0.834000       15.9994           0
     15182 WT1      4876     TIP3     H1       HT       0.417000        1.0080           0
     15183 WT1      4876     TIP3     H2       HT       0.417000        1.0080           0
     15184 WT1      4877     TIP3     OH2      OT      -0.834000       15.9994           0
     15185 WT1      4877     TIP3     H1       HT       0.417000        1.0080           0
     15186 WT1      4877     TIP3     H2       HT       0.417000        1.0080           0
     15187 WT1      4878     TIP3     OH2      OT      -0.834000       15.9994           0
     15188 WT1      4878     TIP3     H1       HT       0.417000        1.0080           0
     15189 WT1      4878     TIP3     H2       HT       0.417000        1.0080           0
     15190 WT1      4879     TIP3     OH2      OT      -0.834000       15.9994           0
     15191 WT1      4879     TIP3     H1       HT       0.417000        1.0080           0
     15192 WT1      4879     TIP3     H2       HT       0.417000        1.0080           0
     15193 WT1      4880     TIP3     OH2      OT      -0.834000       15.9994           0
     15194 WT1      4880     TIP3     H1       HT       0.417000        1.0080           0
     15195 WT1      4880     TIP3     H2       HT       0.417000        1.0080           0
     15196 WT1      4881     TIP3     OH2      OT      -0.834000       15.9994           0
     15197 WT1      4881     TIP3     H1       HT       0.417000        1.0080           0
     15198 WT1      4881     TIP3     H2       HT       0.417000        1.0080           0
     15199 WT1      4882     TIP3     OH2      OT      -0.834000       15.9994           0
     15200 WT1      4882     TIP3     H1       HT       0.417000        1.0080           0
     15201 WT1      4882     TIP3     H2       HT       0.417000        1.0080           0
     15202 WT1      4883     TIP3     OH2      OT      -0.834000       15.9994           0
     15203 WT1      4883     TIP3     H1       HT       0.417000        1.0080           0
     15204 WT1      4883     TIP3     H2       HT       0.417000        1.0080           0
     15205 WT1      4884     TIP3     OH2      OT      -0.834000       15.9994           0
     15206 WT1      4884     TIP3     H1       HT       0.417000        1.0080           0
     15207 WT1      4884     TIP3     H2       HT       0.417000        1.0080           0
     15208 WT1      4885     TIP3     OH2      OT      -0.834000       15.9994           0
     15209 WT1      4885     TIP3     H1       HT       0.417000        1.0080           0
     15210 WT1      4885     TIP3     H2       HT       0.417000        1.0080           0
     15211 WT1      4886     TIP3     OH2      OT      -0.834000       15.9994           0
     15212 WT1      4886     TIP3     H1       HT       0.417000        1.0080           0
     15213 WT1      4886     TIP3     H2       HT       0.417000        1.0080           0
     15214 WT1      4887     TIP3     OH2      OT      -0.834000       15.9994           0
     15215 WT1      4887     TIP3     H1       HT       0.417000        1.0080           0
     15216 WT1      4887     TIP3     H2       HT       0.417000        1.0080           0
     15217 WT1      4888     TIP3     OH2      OT      -0.834000       15.9994           0
     15218 WT1      4888     TIP3     H1       HT       0.417000        1.0080           0
     15219 WT1      4888     TIP3     H2       HT       0.417000        1.0080           0
     15220 WT1      4889     TIP3     OH2      OT      -0.834000       15.9994           0
     15221 WT1      4889     TIP3     H1       HT       0.417000        1.0080           0
     15222 WT1      4889     TIP3     H2       HT       0.417000        1.0080           0
     15223 WT1      4890     TIP3     OH2      OT      -0.834000       15.9994           0
     15224 WT1      4890     TIP3     H1       HT       0.417000        1.0080           0
     15225 WT1      4890     TIP3     H2       HT       0.417000        1.0080           0
     15226 WT1      4891     TIP3     OH2      OT      -0.834000       15.9994           0
     15227 WT1      4891     TIP3     H1       HT       0.417000        1.0080           0
     15228 WT1      4891     TIP3     H2       HT       0.417000        1.0080           0
     15229 WT1      4892     TIP3     OH2      OT      -0.834000       15.9994           0
     15230 WT1      4892     TIP3     H1       HT       0.417000        1.0080           0
     15231 WT1      4892     TIP3     H2       HT       0.417000        1.0080           0
     15232 WT1      4893     TIP3     OH2      OT      -0.834000       15.9994           0
     15233 WT1      4893     TIP3     H1       HT       0.417000        1.0080           0
     15234 WT1      4893     TIP3     H2       HT       0.417000        1.0080           0
     15235 WT1      4894     TIP3     OH2      OT      -0.834000       15.9994           0
     15236 WT1      4894     TIP3     H1       HT       0.417000        1.0080           0
     15237 WT1      4894     TIP3     H2       HT       0.417000        1.0080           0
     15238 WT1      4895     TIP3     OH2      OT      -0.834000       15.9994           0
     15239 WT1      4895     TIP3     H1       HT       0.417000        1.0080           0
     15240 WT1      4895     TIP3     H2       HT       0.417000        1.0080           0
     15241 WT1      4896     TIP3     OH2      OT      -0.834000       15.9994           0
     15242 WT1      4896     TIP3     H1       HT       0.417000        1.0080           0
     15243 WT1      4896     TIP3     H2       HT       0.417000        1.0080           0
     15244 WT1      4897     TIP3     OH2      OT      -0.834000       15.9994           0
     15245 WT1      4897     TIP3     H1       HT       0.417000        1.0080           0
     15246 WT1      4897     TIP3     H2       HT       0.417000        1.0080           0
     15247 WT1      4898     TIP3     OH2      OT      -0.834000       15.9994           0
     15248 WT1      4898     TIP3     H1       HT       0.417000        1.0080           0
     15249 WT1      4898     TIP3     H2       HT       0.417000        1.0080           0
     15250 WT1      4899     TIP3     OH2      OT      -0.834000       15.9994           0
     15251 WT1      4899     TIP3     H1       HT       0.417000        1.0080           0
     15252 WT1      4899     TIP3     H2       HT       0.417000        1.0080           0
     15253 WT1      4900     TIP3     OH2      OT      -0.834000       15.9994           0
     15254 WT1      4900     TIP3     H1       HT       0.417000        1.0080           0
     15255 WT1      4900     TIP3     H2       HT       0.417000        1.0080           0
     15256 WT1      4901     TIP3     OH2      OT      -0.834000       15.9994           0
     15257 WT1      4901     TIP3     H1       HT       0.417000        1.0080           0
     15258 WT1      4901     TIP3     H2       HT       0.417000        1.0080           0
     15259 WT1      4902     TIP3     OH2      OT      -0.834000       15.9994           0
     15260 WT1      4902     TIP3     H1       HT       0.417000        1.0080           0
     15261 WT1      4902     TIP3     H2       HT       0.417000        1.0080           0
     15262 WT1      4903     TIP3     OH2      OT      -0.834000       15.9994           0
     15263 WT1      4903     TIP3     H1       HT       0.417000        1.0080           0
     15264 WT1      4903     TIP3     H2       HT       0.417000        1.0080           0
     15265 WT1      4904     TIP3     OH2      OT      -0.834000       15.9994           0
     15266 WT1      4904     TIP3     H1       HT       0.417000        1.0080           0
     15267 WT1      4904     TIP3     H2       HT       0.417000        1.0080           0
     15268 WT1      4905     TIP3     OH2      OT      -0.834000       15.9994           0
     15269 WT1      4905     TIP3     H1       HT       0.417000        1.0080           0
     15270 WT1      4905     TIP3     H2       HT       0.417000        1.0080           0
     15271 WT1      4906     TIP3     OH2      OT      -0.834000       15.9994           0
     15272 WT1      4906     TIP3     H1       HT       0.417000        1.0080           0
     15273 WT1      4906     TIP3     H2       HT       0.417000        1.0080           0
     15274 WT1      4907     TIP3     OH2      OT      -0.834000       15.9994           0
     15275 WT1      4907     TIP3     H1       HT       0.417000        1.0080           0
     15276 WT1      4907     TIP3     H2       HT       0.417000        1.0080           0
     15277 WT1      4908     TIP3     OH2      OT      -0.834000       15.9994           0
     15278 WT1      4908     TIP3     H1       HT       0.417000        1.0080           0
     15279 WT1      4908     TIP3     H2       HT       0.417000        1.0080           0
     15280 WT1      4909     TIP3     OH2      OT      -0.834000       15.9994           0
     15281 WT1      4909     TIP3     H1       HT       0.417000        1.0080           0
     15282 WT1      4909     TIP3     H2       HT       0.417000        1.0080           0
     15283 WT1      4910     TIP3     OH2      OT      -0.834000       15.9994           0
     15284 WT1      4910     TIP3     H1       HT       0.417000        1.0080           0
     15285 WT1      4910     TIP3     H2       HT       0.417000        1.0080           0
     15286 WT1      4911     TIP3     OH2      OT      -0.834000       15.9994           0
     15287 WT1      4911     TIP3     H1       HT       0.417000        1.0080           0
     15288 WT1      4911     TIP3     H2       HT       0.417000        1.0080           0
     15289 WT1      4912     TIP3     OH2      OT      -0.834000       15.9994           0
     15290 WT1      4912     TIP3     H1       HT       0.417000        1.0080           0
     15291 WT1      4912     TIP3     H2       HT       0.417000        1.0080           0
     15292 WT1      4913     TIP3     OH2      OT      -0.834000       15.9994           0
     15293 WT1      4913     TIP3     H1       HT       0.417000        1.0080           0
     15294 WT1      4913     TIP3     H2       HT       0.417000        1.0080           0
     15295 WT1      4914     TIP3     OH2      OT      -0.834000       15.9994           0
     15296 WT1      4914     TIP3     H1       HT       0.417000        1.0080           0
     15297 WT1      4914     TIP3     H2       HT       0.417000        1.0080           0
     15298 WT1      4915     TIP3     OH2      OT      -0.834000       15.9994           0
     15299 WT1      4915     TIP3     H1       HT       0.417000        1.0080           0
     15300 WT1      4915     TIP3     H2       HT       0.417000        1.0080           0
     15301 WT1      4916     TIP3     OH2      OT      -0.834000       15.9994           0
     15302 WT1      4916     TIP3     H1       HT       0.417000        1.0080           0
     15303 WT1      4916     TIP3     H2       HT       0.417000        1.0080           0
     15304 WT1      4917     TIP3     OH2      OT      -0.834000       15.9994           0
     15305 WT1      4917     TIP3     H1       HT       0.417000        1.0080           0
     15306 WT1      4917     TIP3     H2       HT       0.417000        1.0080           0
     15307 WT1      4918     TIP3     OH2      OT      -0.834000       15.9994           0
     15308 WT1      4918     TIP3     H1       HT       0.417000        1.0080           0
     15309 WT1      4918     TIP3     H2       HT       0.417000        1.0080           0
     15310 WT1      4919     TIP3     OH2      OT      -0.834000       15.9994           0
     15311 WT1      4919     TIP3     H1       HT       0.417000        1.0080           0
     15312 WT1      4919     TIP3     H2       HT       0.417000        1.0080           0
     15313 WT1      4920     TIP3     OH2      OT      -0.834000       15.9994           0
     15314 WT1      4920     TIP3     H1       HT       0.417000        1.0080           0
     15315 WT1      4920     TIP3     H2       HT       0.417000        1.0080           0
     15316 WT1      4921     TIP3     OH2      OT      -0.834000       15.9994           0
     15317 WT1      4921     TIP3     H1       HT       0.417000        1.0080           0
     15318 WT1      4921     TIP3     H2       HT       0.417000        1.0080           0
     15319 WT1      4922     TIP3     OH2      OT      -0.834000       15.9994           0
     15320 WT1      4922     TIP3     H1       HT       0.417000        1.0080           0
     15321 WT1      4922     TIP3     H2       HT       0.417000        1.0080           0
     15322 WT1      4923     TIP3     OH2      OT      -0.834000       15.9994           0
     15323 WT1      4923     TIP3     H1       HT       0.417000        1.0080           0
     15324 WT1      4923     TIP3     H2       HT       0.417000        1.0080           0
     15325 WT1      4924     TIP3     OH2      OT      -0.834000       15.9994           0
     15326 WT1      4924     TIP3     H1       HT       0.417000        1.0080           0
     15327 WT1      4924     TIP3     H2       HT       0.417000        1.0080           0
     15328 WT1      4925     TIP3     OH2      OT      -0.834000       15.9994           0
     15329 WT1      4925     TIP3     H1       HT       0.417000        1.0080           0
     15330 WT1      4925     TIP3     H2       HT       0.417000        1.0080           0
     15331 WT1      4926     TIP3     OH2      OT      -0.834000       15.9994           0
     15332 WT1      4926     TIP3     H1       HT       0.417000        1.0080           0
     15333 WT1      4926     TIP3     H2       HT       0.417000        1.0080           0
     15334 WT1      4927     TIP3     OH2      OT      -0.834000       15.9994           0
     15335 WT1      4927     TIP3     H1       HT       0.417000        1.0080           0
     15336 WT1      4927     TIP3     H2       HT       0.417000        1.0080           0
     15337 WT1      4928     TIP3     OH2      OT      -0.834000       15.9994           0
     15338 WT1      4928     TIP3     H1       HT       0.417000        1.0080           0
     15339 WT1      4928     TIP3     H2       HT       0.417000        1.0080           0
     15340 WT1      4929     TIP3     OH2      OT      -0.834000       15.9994           0
     15341 WT1      4929     TIP3     H1       HT       0.417000        1.0080           0
     15342 WT1      4929     TIP3     H2       HT       0.417000        1.0080           0
     15343 WT1      4930     TIP3     OH2      OT      -0.834000       15.9994           0
     15344 WT1      4930     TIP3     H1       HT       0.417000        1.0080           0
     15345 WT1      4930     TIP3     H2       HT       0.417000        1.0080           0
     15346 WT1      4931     TIP3     OH2      OT      -0.834000       15.9994           0
     15347 WT1      4931     TIP3     H1       HT       0.417000        1.0080           0
     15348 WT1      4931     TIP3     H2       HT       0.417000        1.0080           0
     15349 WT1      4932     TIP3     OH2      OT      -0.834000       15.9994           0
     15350 WT1      4932     TIP3     H1       HT       0.417000        1.0080           0
     15351 WT1      4932     TIP3     H2       HT       0.417000        1.0080           0
     15352 WT1      4933     TIP3     OH2      OT      -0.834000       15.9994           0
     15353 WT1      4933     TIP3     H1       HT       0.417000        1.0080           0
     15354 WT1      4933     TIP3     H2       HT       0.417000        1.0080           0
     15355 WT1      4934     TIP3     OH2      OT      -0.834000       15.9994           0
     15356 WT1      4934     TIP3     H1       HT       0.417000        1.0080           0
     15357 WT1      4934     TIP3     H2       HT       0.417000        1.0080           0
     15358 WT1      4935     TIP3     OH2      OT      -0.834000       15.9994           0
     15359 WT1      4935     TIP3     H1       HT       0.417000        1.0080           0
     15360 WT1      4935     TIP3     H2       HT       0.417000        1.0080           0
     15361 WT1      4936     TIP3     OH2      OT      -0.834000       15.9994           0
     15362 WT1      4936     TIP3     H1       HT       0.417000        1.0080           0
     15363 WT1      4936     TIP3     H2       HT       0.417000        1.0080           0
     15364 WT1      4937     TIP3     OH2      OT      -0.834000       15.9994           0
     15365 WT1      4937     TIP3     H1       HT       0.417000        1.0080           0
     15366 WT1      4937     TIP3     H2       HT       0.417000        1.0080           0
     15367 WT1      4938     TIP3     OH2      OT      -0.834000       15.9994           0
     15368 WT1      4938     TIP3     H1       HT       0.417000        1.0080           0
     15369 WT1      4938     TIP3     H2       HT       0.417000        1.0080           0
     15370 WT1      4939     TIP3     OH2      OT      -0.834000       15.9994           0
     15371 WT1      4939     TIP3     H1       HT       0.417000        1.0080           0
     15372 WT1      4939     TIP3     H2       HT       0.417000        1.0080           0
     15373 WT1      4940     TIP3     OH2      OT      -0.834000       15.9994           0
     15374 WT1      4940     TIP3     H1       HT       0.417000        1.0080           0
     15375 WT1      4940     TIP3     H2       HT       0.417000        1.0080           0
     15376 WT1      4941     TIP3     OH2      OT      -0.834000       15.9994           0
     15377 WT1      4941     TIP3     H1       HT       0.417000        1.0080           0
     15378 WT1      4941     TIP3     H2       HT       0.417000        1.0080           0
     15379 WT1      4942     TIP3     OH2      OT      -0.834000       15.9994           0
     15380 WT1      4942     TIP3     H1       HT       0.417000        1.0080           0
     15381 WT1      4942     TIP3     H2       HT       0.417000        1.0080           0
     15382 WT1      4943     TIP3     OH2      OT      -0.834000       15.9994           0
     15383 WT1      4943     TIP3     H1       HT       0.417000        1.0080           0
     15384 WT1      4943     TIP3     H2       HT       0.417000        1.0080           0
     15385 WT1      4944     TIP3     OH2      OT      -0.834000       15.9994           0
     15386 WT1      4944     TIP3     H1       HT       0.417000        1.0080           0
     15387 WT1      4944     TIP3     H2       HT       0.417000        1.0080           0
     15388 WT1      4945     TIP3     OH2      OT      -0.834000       15.9994           0
     15389 WT1      4945     TIP3     H1       HT       0.417000        1.0080           0
     15390 WT1      4945     TIP3     H2       HT       0.417000        1.0080           0
     15391 WT1      4946     TIP3     OH2      OT      -0.834000       15.9994           0
     15392 WT1      4946     TIP3     H1       HT       0.417000        1.0080           0
     15393 WT1      4946     TIP3     H2       HT       0.417000        1.0080           0
     15394 WT1      4947     TIP3     OH2      OT      -0.834000       15.9994           0
     15395 WT1      4947     TIP3     H1       HT       0.417000        1.0080           0
     15396 WT1      4947     TIP3     H2       HT       0.417000        1.0080           0
     15397 WT1      4948     TIP3     OH2      OT      -0.834000       15.9994           0
     15398 WT1      4948     TIP3     H1       HT       0.417000        1.0080           0
     15399 WT1      4948     TIP3     H2       HT       0.417000        1.0080           0
     15400 WT1      4949     TIP3     OH2      OT      -0.834000       15.9994           0
     15401 WT1      4949     TIP3     H1       HT       0.417000        1.0080           0
     15402 WT1      4949     TIP3     H2       HT       0.417000        1.0080           0
     15403 WT1      4950     TIP3     OH2      OT      -0.834000       15.9994           0
     15404 WT1      4950     TIP3     H1       HT       0.417000        1.0080           0
     15405 WT1      4950     TIP3     H2       HT       0.417000        1.0080           0
     15406 WT1      4951     TIP3     OH2      OT      -0.834000       15.9994           0
     15407 WT1      4951     TIP3     H1       HT       0.417000        1.0080           0
     15408 WT1      4951     TIP3     H2       HT       0.417000        1.0080           0
     15409 WT1      4952     TIP3     OH2      OT      -0.834000       15.9994           0
     15410 WT1      4952     TIP3     H1       HT       0.417000        1.0080           0
     15411 WT1      4952     TIP3     H2       HT       0.417000        1.0080           0
     15412 WT1      4953     TIP3     OH2      OT      -0.834000       15.9994           0
     15413 WT1      4953     TIP3     H1       HT       0.417000        1.0080           0
     15414 WT1      4953     TIP3     H2       HT       0.417000        1.0080           0
     15415 WT1      4954     TIP3     OH2      OT      -0.834000       15.9994           0
     15416 WT1      4954     TIP3     H1       HT       0.417000        1.0080           0
     15417 WT1      4954     TIP3     H2       HT       0.417000        1.0080           0
     15418 WT1      4955     TIP3     OH2      OT      -0.834000       15.9994           0
     15419 WT1      4955     TIP3     H1       HT       0.417000        1.0080           0
     15420 WT1      4955     TIP3     H2       HT       0.417000        1.0080           0
     15421 WT1      4956     TIP3     OH2      OT      -0.834000       15.9994           0
     15422 WT1      4956     TIP3     H1       HT       0.417000        1.0080           0
     15423 WT1      4956     TIP3     H2       HT       0.417000        1.0080           0
     15424 WT1      4957     TIP3     OH2      OT      -0.834000       15.9994           0
     15425 WT1      4957     TIP3     H1       HT       0.417000        1.0080           0
     15426 WT1      4957     TIP3     H2       HT       0.417000        1.0080           0
     15427 WT1      4958     TIP3     OH2      OT      -0.834000       15.9994           0
     15428 WT1      4958     TIP3     H1       HT       0.417000        1.0080           0
     15429 WT1      4958     TIP3     H2       HT       0.417000        1.0080           0
     15430 WT1      4959     TIP3     OH2      OT      -0.834000       15.9994           0
     15431 WT1      4959     TIP3     H1       HT       0.417000        1.0080           0
     15432 WT1      4959     TIP3     H2       HT       0.417000        1.0080           0
     15433 WT1      4960     TIP3     OH2      OT      -0.834000       15.9994           0
     15434 WT1      4960     TIP3     H1       HT       0.417000        1.0080           0
     15435 WT1      4960     TIP3     H2       HT       0.417000        1.0080           0
     15436 WT1      4961     TIP3     OH2      OT      -0.834000       15.9994           0
     15437 WT1      4961     TIP3     H1       HT       0.417000        1.0080           0
     15438 WT1      4961     TIP3     H2       HT       0.417000        1.0080           0
     15439 WT1      4962     TIP3     OH2      OT      -0.834000       15.9994           0
     15440 WT1      4962     TIP3     H1       HT       0.417000        1.0080           0
     15441 WT1      4962     TIP3     H2       HT       0.417000        1.0080           0
     15442 WT1      4963     TIP3     OH2      OT      -0.834000       15.9994           0
     15443 WT1      4963     TIP3     H1       HT       0.417000        1.0080           0
     15444 WT1      4963     TIP3     H2       HT       0.417000        1.0080           0
     15445 WT1      4964     TIP3     OH2      OT      -0.834000       15.9994           0
     15446 WT1      4964     TIP3     H1       HT       0.417000        1.0080           0
     15447 WT1      4964     TIP3     H2       HT       0.417000        1.0080           0
     15448 WT1      4965     TIP3     OH2      OT      -0.834000       15.9994           0
     15449 WT1      4965     TIP3     H1       HT       0.417000        1.0080           0
     15450 WT1      4965     TIP3     H2       HT       0.417000        1.0080           0
     15451 WT1      4966     TIP3     OH2      OT      -0.834000       15.9994           0
     15452 WT1      4966     TIP3     H1       HT       0.417000        1.0080           0
     15453 WT1      4966     TIP3     H2       HT       0.417000        1.0080           0
     15454 WT1      4967     TIP3     OH2      OT      -0.834000       15.9994           0
     15455 WT1      4967     TIP3     H1       HT       0.417000        1.0080           0
     15456 WT1      4967     TIP3     H2       HT       0.417000        1.0080           0
     15457 WT1      4968     TIP3     OH2      OT      -0.834000       15.9994           0
     15458 WT1      4968     TIP3     H1       HT       0.417000        1.0080           0
     15459 WT1      4968     TIP3     H2       HT       0.417000        1.0080           0
     15460 WT1      4969     TIP3     OH2      OT      -0.834000       15.9994           0
     15461 WT1      4969     TIP3     H1       HT       0.417000        1.0080           0
     15462 WT1      4969     TIP3     H2       HT       0.417000        1.0080           0
     15463 WT1      4970     TIP3     OH2      OT      -0.834000       15.9994           0
     15464 WT1      4970     TIP3     H1       HT       0.417000        1.0080           0
     15465 WT1      4970     TIP3     H2       HT       0.417000        1.0080           0
     15466 WT1      4971     TIP3     OH2      OT      -0.834000       15.9994           0
     15467 WT1      4971     TIP3     H1       HT       0.417000        1.0080           0
     15468 WT1      4971     TIP3     H2       HT       0.417000        1.0080           0
     15469 WT1      4972     TIP3     OH2      OT      -0.834000       15.9994           0
     15470 WT1      4972     TIP3     H1       HT       0.417000        1.0080           0
     15471 WT1      4972     TIP3     H2       HT       0.417000        1.0080           0
     15472 WT1      4973     TIP3     OH2      OT      -0.834000       15.9994           0
     15473 WT1      4973     TIP3     H1       HT       0.417000        1.0080           0
     15474 WT1      4973     TIP3     H2       HT       0.417000        1.0080           0
     15475 WT1      4974     TIP3     OH2      OT      -0.834000       15.9994           0
     15476 WT1      4974     TIP3     H1       HT       0.417000        1.0080           0
     15477 WT1      4974     TIP3     H2       HT       0.417000        1.0080           0
     15478 WT1      4975     TIP3     OH2      OT      -0.834000       15.9994           0
     15479 WT1      4975     TIP3     H1       HT       0.417000        1.0080           0
     15480 WT1      4975     TIP3     H2       HT       0.417000        1.0080           0
     15481 WT1      4976     TIP3     OH2      OT      -0.834000       15.9994           0
     15482 WT1      4976     TIP3     H1       HT       0.417000        1.0080           0
     15483 WT1      4976     TIP3     H2       HT       0.417000        1.0080           0
     15484 WT1      4977     TIP3     OH2      OT      -0.834000       15.9994           0
     15485 WT1      4977     TIP3     H1       HT       0.417000        1.0080           0
     15486 WT1      4977     TIP3     H2       HT       0.417000        1.0080           0
     15487 WT1      4978     TIP3     OH2      OT      -0.834000       15.9994           0
     15488 WT1      4978     TIP3     H1       HT       0.417000        1.0080           0
     15489 WT1      4978     TIP3     H2       HT       0.417000        1.0080           0
     15490 WT1      4979     TIP3     OH2      OT      -0.834000       15.9994           0
     15491 WT1      4979     TIP3     H1       HT       0.417000        1.0080           0
     15492 WT1      4979     TIP3     H2       HT       0.417000        1.0080           0
     15493 WT1      4980     TIP3     OH2      OT      -0.834000       15.9994           0
     15494 WT1      4980     TIP3     H1       HT       0.417000        1.0080           0
     15495 WT1      4980     TIP3     H2       HT       0.417000        1.0080           0
     15496 WT1      4981     TIP3     OH2      OT      -0.834000       15.9994           0
     15497 WT1      4981     TIP3     H1       HT       0.417000        1.0080           0
     15498 WT1      4981     TIP3     H2       HT       0.417000        1.0080           0
     15499 WT1      4982     TIP3     OH2      OT      -0.834000       15.9994           0
     15500 WT1      4982     TIP3     H1       HT       0.417000        1.0080           0
     15501 WT1      4982     TIP3     H2       HT       0.417000        1.0080           0
     15502 WT1      4983     TIP3     OH2      OT      -0.834000       15.9994           0
     15503 WT1      4983     TIP3     H1       HT       0.417000        1.0080           0
     15504 WT1      4983     TIP3     H2       HT       0.417000        1.0080           0
     15505 WT1      4984     TIP3     OH2      OT      -0.834000       15.9994           0
     15506 WT1      4984     TIP3     H1       HT       0.417000        1.0080           0
     15507 WT1      4984     TIP3     H2       HT       0.417000        1.0080           0
     15508 WT1      4985     TIP3     OH2      OT      -0.834000       15.9994           0
     15509 WT1      4985     TIP3     H1       HT       0.417000        1.0080           0
     15510 WT1      4985     TIP3     H2       HT       0.417000        1.0080           0
     15511 WT1      4986     TIP3     OH2      OT      -0.834000       15.9994           0
     15512 WT1      4986     TIP3     H1       HT       0.417000        1.0080           0
     15513 WT1      4986     TIP3     H2       HT       0.417000        1.0080           0
     15514 WT1      4987     TIP3     OH2      OT      -0.834000       15.9994           0
     15515 WT1      4987     TIP3     H1       HT       0.417000        1.0080           0
     15516 WT1      4987     TIP3     H2       HT       0.417000        1.0080           0
     15517 WT1      4988     TIP3     OH2      OT      -0.834000       15.9994           0
     15518 WT1      4988     TIP3     H1       HT       0.417000        1.0080           0
     15519 WT1      4988     TIP3     H2       HT       0.417000        1.0080           0
     15520 WT1      4989     TIP3     OH2      OT      -0.834000       15.9994           0
     15521 WT1      4989     TIP3     H1       HT       0.417000        1.0080           0
     15522 WT1      4989     TIP3     H2       HT       0.417000        1.0080           0
     15523 WT1      4990     TIP3     OH2      OT      -0.834000       15.9994           0
     15524 WT1      4990     TIP3     H1       HT       0.417000        1.0080           0
     15525 WT1      4990     TIP3     H2       HT       0.417000        1.0080           0
     15526 WT1      4991     TIP3     OH2      OT      -0.834000       15.9994           0
     15527 WT1      4991     TIP3     H1       HT       0.417000        1.0080           0
     15528 WT1      4991     TIP3     H2       HT       0.417000        1.0080           0
     15529 WT1      4992     TIP3     OH2      OT      -0.834000       15.9994           0
     15530 WT1      4992     TIP3     H1       HT       0.417000        1.0080           0
     15531 WT1      4992     TIP3     H2       HT       0.417000        1.0080           0
     15532 WT1      4993     TIP3     OH2      OT      -0.834000       15.9994           0
     15533 WT1      4993     TIP3     H1       HT       0.417000        1.0080           0
     15534 WT1      4993     TIP3     H2       HT       0.417000        1.0080           0
     15535 WT1      4994     TIP3     OH2      OT      -0.834000       15.9994           0
     15536 WT1      4994     TIP3     H1       HT       0.417000        1.0080           0
     15537 WT1      4994     TIP3     H2       HT       0.417000        1.0080           0
     15538 WT1      4995     TIP3     OH2      OT      -0.834000       15.9994           0
     15539 WT1      4995     TIP3     H1       HT       0.417000        1.0080           0
     15540 WT1      4995     TIP3     H2       HT       0.417000        1.0080           0
     15541 WT1      4996     TIP3     OH2      OT      -0.834000       15.9994           0
     15542 WT1      4996     TIP3     H1       HT       0.417000        1.0080           0
     15543 WT1      4996     TIP3     H2       HT       0.417000        1.0080           0
     15544 WT1      4997     TIP3     OH2      OT      -0.834000       15.9994           0
     15545 WT1      4997     TIP3     H1       HT       0.417000        1.0080           0
     15546 WT1      4997     TIP3     H2       HT       0.417000        1.0080           0
     15547 WT1      4998     TIP3     OH2      OT      -0.834000       15.9994           0
     15548 WT1      4998     TIP3     H1       HT       0.417000        1.0080           0
     15549 WT1      4998     TIP3     H2       HT       0.417000        1.0080           0
     15550 WT1      4999     TIP3     OH2      OT      -0.834000       15.9994           0
     15551 WT1      4999     TIP3     H1       HT       0.417000        1.0080           0
     15552 WT1      4999     TIP3     H2       HT       0.417000        1.0080           0
     15553 WT1      5000     TIP3     OH2      OT      -0.834000       15.9994           0
     15554 WT1      5000     TIP3     H1       HT       0.417000        1.0080           0
     15555 WT1      5000     TIP3     H2       HT       0.417000        1.0080           0
     15556 WT1      5001     TIP3     OH2      OT      -0.834000       15.9994           0
     15557 WT1      5001     TIP3     H1       HT       0.417000        1.0080           0
     15558 WT1      5001     TIP3     H2       HT       0.417000        1.0080           0
     15559 WT1      5002     TIP3     OH2      OT      -0.834000       15.9994           0
     15560 WT1      5002     TIP3     H1       HT       0.417000        1.0080           0
     15561 WT1      5002     TIP3     H2       HT       0.417000        1.0080           0
     15562 WT1      5003     TIP3     OH2      OT      -0.834000       15.9994           0
     15563 WT1      5003     TIP3     H1       HT       0.417000        1.0080           0
     15564 WT1      5003     TIP3     H2       HT       0.417000        1.0080           0
     15565 WT1      5004     TIP3     OH2      OT      -0.834000       15.9994           0
     15566 WT1      5004     TIP3     H1       HT       0.417000        1.0080           0
     15567 WT1      5004     TIP3     H2       HT       0.417000        1.0080           0
     15568 WT1      5005     TIP3     OH2      OT      -0.834000       15.9994           0
     15569 WT1      5005     TIP3     H1       HT       0.417000        1.0080           0
     15570 WT1      5005     TIP3     H2       HT       0.417000        1.0080           0
     15571 WT1      5006     TIP3     OH2      OT      -0.834000       15.9994           0
     15572 WT1      5006     TIP3     H1       HT       0.417000        1.0080           0
     15573 WT1      5006     TIP3     H2       HT       0.417000        1.0080           0
     15574 WT1      5007     TIP3     OH2      OT      -0.834000       15.9994           0
     15575 WT1      5007     TIP3     H1       HT       0.417000        1.0080           0
     15576 WT1      5007     TIP3     H2       HT       0.417000        1.0080           0
     15577 WT1      5008     TIP3     OH2      OT      -0.834000       15.9994           0
     15578 WT1      5008     TIP3     H1       HT       0.417000        1.0080           0
     15579 WT1      5008     TIP3     H2       HT       0.417000        1.0080           0
     15580 WT1      5009     TIP3     OH2      OT      -0.834000       15.9994           0
     15581 WT1      5009     TIP3     H1       HT       0.417000        1.0080           0
     15582 WT1      5009     TIP3     H2       HT       0.417000        1.0080           0
     15583 WT1      5010     TIP3     OH2      OT      -0.834000       15.9994           0
     15584 WT1      5010     TIP3     H1       HT       0.417000        1.0080           0
     15585 WT1      5010     TIP3     H2       HT       0.417000        1.0080           0
     15586 WT1      5011     TIP3     OH2      OT      -0.834000       15.9994           0
     15587 WT1      5011     TIP3     H1       HT       0.417000        1.0080           0
     15588 WT1      5011     TIP3     H2       HT       0.417000        1.0080           0
     15589 WT1      5012     TIP3     OH2      OT      -0.834000       15.9994           0
     15590 WT1      5012     TIP3     H1       HT       0.417000        1.0080           0
     15591 WT1      5012     TIP3     H2       HT       0.417000        1.0080           0
     15592 WT1      5013     TIP3     OH2      OT      -0.834000       15.9994           0
     15593 WT1      5013     TIP3     H1       HT       0.417000        1.0080           0
     15594 WT1      5013     TIP3     H2       HT       0.417000        1.0080           0
     15595 WT1      5014     TIP3     OH2      OT      -0.834000       15.9994           0
     15596 WT1      5014     TIP3     H1       HT       0.417000        1.0080           0
     15597 WT1      5014     TIP3     H2       HT       0.417000        1.0080           0
     15598 WT1      5015     TIP3     OH2      OT      -0.834000       15.9994           0
     15599 WT1      5015     TIP3     H1       HT       0.417000        1.0080           0
     15600 WT1      5015     TIP3     H2       HT       0.417000        1.0080           0
     15601 WT1      5016     TIP3     OH2      OT      -0.834000       15.9994           0
     15602 WT1      5016     TIP3     H1       HT       0.417000        1.0080           0
     15603 WT1      5016     TIP3     H2       HT       0.417000        1.0080           0
     15604 WT1      5017     TIP3     OH2      OT      -0.834000       15.9994           0
     15605 WT1      5017     TIP3     H1       HT       0.417000        1.0080           0
     15606 WT1      5017     TIP3     H2       HT       0.417000        1.0080           0
     15607 WT1      5018     TIP3     OH2      OT      -0.834000       15.9994           0
     15608 WT1      5018     TIP3     H1       HT       0.417000        1.0080           0
     15609 WT1      5018     TIP3     H2       HT       0.417000        1.0080           0
     15610 WT1      5019     TIP3     OH2      OT      -0.834000       15.9994           0
     15611 WT1      5019     TIP3     H1       HT       0.417000        1.0080           0
     15612 WT1      5019     TIP3     H2       HT       0.417000        1.0080           0
     15613 WT1      5020     TIP3     OH2      OT      -0.834000       15.9994           0
     15614 WT1      5020     TIP3     H1       HT       0.417000        1.0080           0
     15615 WT1      5020     TIP3     H2       HT       0.417000        1.0080           0
     15616 WT1      5021     TIP3     OH2      OT      -0.834000       15.9994           0
     15617 WT1      5021     TIP3     H1       HT       0.417000        1.0080           0
     15618 WT1      5021     TIP3     H2       HT       0.417000        1.0080           0
     15619 WT1      5022     TIP3     OH2      OT      -0.834000       15.9994           0
     15620 WT1      5022     TIP3     H1       HT       0.417000        1.0080           0
     15621 WT1      5022     TIP3     H2       HT       0.417000        1.0080           0
     15622 WT1      5023     TIP3     OH2      OT      -0.834000       15.9994           0
     15623 WT1      5023     TIP3     H1       HT       0.417000        1.0080           0
     15624 WT1      5023     TIP3     H2       HT       0.417000        1.0080           0
     15625 WT1      5024     TIP3     OH2      OT      -0.834000       15.9994           0
     15626 WT1      5024     TIP3     H1       HT       0.417000        1.0080           0
     15627 WT1      5024     TIP3     H2       HT       0.417000        1.0080           0
     15628 WT1      5025     TIP3     OH2      OT      -0.834000       15.9994           0
     15629 WT1      5025     TIP3     H1       HT       0.417000        1.0080           0
     15630 WT1      5025     TIP3     H2       HT       0.417000        1.0080           0
     15631 WT1      5026     TIP3     OH2      OT      -0.834000       15.9994           0
     15632 WT1      5026     TIP3     H1       HT       0.417000        1.0080           0
     15633 WT1      5026     TIP3     H2       HT       0.417000        1.0080           0
     15634 WT1      5027     TIP3     OH2      OT      -0.834000       15.9994           0
     15635 WT1      5027     TIP3     H1       HT       0.417000        1.0080           0
     15636 WT1      5027     TIP3     H2       HT       0.417000        1.0080           0
     15637 WT1      5028     TIP3     OH2      OT      -0.834000       15.9994           0
     15638 WT1      5028     TIP3     H1       HT       0.417000        1.0080           0
     15639 WT1      5028     TIP3     H2       HT       0.417000        1.0080           0
     15640 WT1      5029     TIP3     OH2      OT      -0.834000       15.9994           0
     15641 WT1      5029     TIP3     H1       HT       0.417000        1.0080           0
     15642 WT1      5029     TIP3     H2       HT       0.417000        1.0080           0
     15643 WT1      5030     TIP3     OH2      OT      -0.834000       15.9994           0
     15644 WT1      5030     TIP3     H1       HT       0.417000        1.0080           0
     15645 WT1      5030     TIP3     H2       HT       0.417000        1.0080           0
     15646 WT1      5031     TIP3     OH2      OT      -0.834000       15.9994           0
     15647 WT1      5031     TIP3     H1       HT       0.417000        1.0080           0
     15648 WT1      5031     TIP3     H2       HT       0.417000        1.0080           0
     15649 WT1      5032     TIP3     OH2      OT      -0.834000       15.9994           0
     15650 WT1      5032     TIP3     H1       HT       0.417000        1.0080           0
     15651 WT1      5032     TIP3     H2       HT       0.417000        1.0080           0
     15652 WT1      5033     TIP3     OH2      OT      -0.834000       15.9994           0
     15653 WT1      5033     TIP3     H1       HT       0.417000        1.0080           0
     15654 WT1      5033     TIP3     H2       HT       0.417000        1.0080           0
     15655 WT1      5034     TIP3     OH2      OT      -0.834000       15.9994           0
     15656 WT1      5034     TIP3     H1       HT       0.417000        1.0080           0
     15657 WT1      5034     TIP3     H2       HT       0.417000        1.0080           0
     15658 WT1      5035     TIP3     OH2      OT      -0.834000       15.9994           0
     15659 WT1      5035     TIP3     H1       HT       0.417000        1.0080           0
     15660 WT1      5035     TIP3     H2       HT       0.417000        1.0080           0
     15661 WT1      5036     TIP3     OH2      OT      -0.834000       15.9994           0
     15662 WT1      5036     TIP3     H1       HT       0.417000        1.0080           0
     15663 WT1      5036     TIP3     H2       HT       0.417000        1.0080           0
     15664 WT1      5037     TIP3     OH2      OT      -0.834000       15.9994           0
     15665 WT1      5037     TIP3     H1       HT       0.417000        1.0080           0
     15666 WT1      5037     TIP3     H2       HT       0.417000        1.0080           0
     15667 WT1      5038     TIP3     OH2      OT      -0.834000       15.9994           0
     15668 WT1      5038     TIP3     H1       HT       0.417000        1.0080           0
     15669 WT1      5038     TIP3     H2       HT       0.417000        1.0080           0
     15670 WT1      5039     TIP3     OH2      OT      -0.834000       15.9994           0
     15671 WT1      5039     TIP3     H1       HT       0.417000        1.0080           0
     15672 WT1      5039     TIP3     H2       HT       0.417000        1.0080           0
     15673 WT1      5040     TIP3     OH2      OT      -0.834000       15.9994           0
     15674 WT1      5040     TIP3     H1       HT       0.417000        1.0080           0
     15675 WT1      5040     TIP3     H2       HT       0.417000        1.0080           0
     15676 WT1      5041     TIP3     OH2      OT      -0.834000       15.9994           0
     15677 WT1      5041     TIP3     H1       HT       0.417000        1.0080           0
     15678 WT1      5041     TIP3     H2       HT       0.417000        1.0080           0
     15679 WT1      5042     TIP3     OH2      OT      -0.834000       15.9994           0
     15680 WT1      5042     TIP3     H1       HT       0.417000        1.0080           0
     15681 WT1      5042     TIP3     H2       HT       0.417000        1.0080           0
     15682 WT1      5043     TIP3     OH2      OT      -0.834000       15.9994           0
     15683 WT1      5043     TIP3     H1       HT       0.417000        1.0080           0
     15684 WT1      5043     TIP3     H2       HT       0.417000        1.0080           0
     15685 WT1      5044     TIP3     OH2      OT      -0.834000       15.9994           0
     15686 WT1      5044     TIP3     H1       HT       0.417000        1.0080           0
     15687 WT1      5044     TIP3     H2       HT       0.417000        1.0080           0
     15688 WT1      5045     TIP3     OH2      OT      -0.834000       15.9994           0
     15689 WT1      5045     TIP3     H1       HT       0.417000        1.0080           0
     15690 WT1      5045     TIP3     H2       HT       0.417000        1.0080           0
     15691 WT1      5046     TIP3     OH2      OT      -0.834000       15.9994           0
     15692 WT1      5046     TIP3     H1       HT       0.417000        1.0080           0
     15693 WT1      5046     TIP3     H2       HT       0.417000        1.0080           0
     15694 WT1      5047     TIP3     OH2      OT      -0.834000       15.9994           0
     15695 WT1      5047     TIP3     H1       HT       0.417000        1.0080           0
     15696 WT1      5047     TIP3     H2       HT       0.417000        1.0080           0
     15697 WT1      5048     TIP3     OH2      OT      -0.834000       15.9994           0
     15698 WT1      5048     TIP3     H1       HT       0.417000        1.0080           0
     15699 WT1      5048     TIP3     H2       HT       0.417000        1.0080           0
     15700 WT1      5049     TIP3     OH2      OT      -0.834000       15.9994           0
     15701 WT1      5049     TIP3     H1       HT       0.417000        1.0080           0
     15702 WT1      5049     TIP3     H2       HT       0.417000        1.0080           0
     15703 WT1      5050     TIP3     OH2      OT      -0.834000       15.9994           0
     15704 WT1      5050     TIP3     H1       HT       0.417000        1.0080           0
     15705 WT1      5050     TIP3     H2       HT       0.417000        1.0080           0
     15706 WT1      5051     TIP3     OH2      OT      -0.834000       15.9994           0
     15707 WT1      5051     TIP3     H1       HT       0.417000        1.0080           0
     15708 WT1      5051     TIP3     H2       HT       0.417000        1.0080           0
     15709 WT1      5052     TIP3     OH2      OT      -0.834000       15.9994           0
     15710 WT1      5052     TIP3     H1       HT       0.417000        1.0080           0
     15711 WT1      5052     TIP3     H2       HT       0.417000        1.0080           0
     15712 WT1      5053     TIP3     OH2      OT      -0.834000       15.9994           0
     15713 WT1      5053     TIP3     H1       HT       0.417000        1.0080           0
     15714 WT1      5053     TIP3     H2       HT       0.417000        1.0080           0
     15715 WT1      5054     TIP3     OH2      OT      -0.834000       15.9994           0
     15716 WT1      5054     TIP3     H1       HT       0.417000        1.0080           0
     15717 WT1      5054     TIP3     H2       HT       0.417000        1.0080           0
     15718 WT1      5055     TIP3     OH2      OT      -0.834000       15.9994           0
     15719 WT1      5055     TIP3     H1       HT       0.417000        1.0080           0
     15720 WT1      5055     TIP3     H2       HT       0.417000        1.0080           0
     15721 WT1      5056     TIP3     OH2      OT      -0.834000       15.9994           0
     15722 WT1      5056     TIP3     H1       HT       0.417000        1.0080           0
     15723 WT1      5056     TIP3     H2       HT       0.417000        1.0080           0
     15724 WT1      5057     TIP3     OH2      OT      -0.834000       15.9994           0
     15725 WT1      5057     TIP3     H1       HT       0.417000        1.0080           0
     15726 WT1      5057     TIP3     H2       HT       0.417000        1.0080           0
     15727 WT1      5058     TIP3     OH2      OT      -0.834000       15.9994           0
     15728 WT1      5058     TIP3     H1       HT       0.417000        1.0080           0
     15729 WT1      5058     TIP3     H2       HT       0.417000        1.0080           0
     15730 WT1      5059     TIP3     OH2      OT      -0.834000       15.9994           0
     15731 WT1      5059     TIP3     H1       HT       0.417000        1.0080           0
     15732 WT1      5059     TIP3     H2       HT       0.417000        1.0080           0
     15733 WT1      5060     TIP3     OH2      OT      -0.834000       15.9994           0
     15734 WT1      5060     TIP3     H1       HT       0.417000        1.0080           0
     15735 WT1      5060     TIP3     H2       HT       0.417000        1.0080           0
     15736 WT1      5061     TIP3     OH2      OT      -0.834000       15.9994           0
     15737 WT1      5061     TIP3     H1       HT       0.417000        1.0080           0
     15738 WT1      5061     TIP3     H2       HT       0.417000        1.0080           0
     15739 WT1      5062     TIP3     OH2      OT      -0.834000       15.9994           0
     15740 WT1      5062     TIP3     H1       HT       0.417000        1.0080           0
     15741 WT1      5062     TIP3     H2       HT       0.417000        1.0080           0
     15742 WT1      5063     TIP3     OH2      OT      -0.834000       15.9994           0
     15743 WT1      5063     TIP3     H1       HT       0.417000        1.0080           0
     15744 WT1      5063     TIP3     H2       HT       0.417000        1.0080           0
     15745 WT1      5064     TIP3     OH2      OT      -0.834000       15.9994           0
     15746 WT1      5064     TIP3     H1       HT       0.417000        1.0080           0
     15747 WT1      5064     TIP3     H2       HT       0.417000        1.0080           0
     15748 WT1      5065     TIP3     OH2      OT      -0.834000       15.9994           0
     15749 WT1      5065     TIP3     H1       HT       0.417000        1.0080           0
     15750 WT1      5065     TIP3     H2       HT       0.417000        1.0080           0
     15751 WT1      5066     TIP3     OH2      OT      -0.834000       15.9994           0
     15752 WT1      5066     TIP3     H1       HT       0.417000        1.0080           0
     15753 WT1      5066     TIP3     H2       HT       0.417000        1.0080           0
     15754 WT1      5067     TIP3     OH2      OT      -0.834000       15.9994           0
     15755 WT1      5067     TIP3     H1       HT       0.417000        1.0080           0
     15756 WT1      5067     TIP3     H2       HT       0.417000        1.0080           0
     15757 WT1      5068     TIP3     OH2      OT      -0.834000       15.9994           0
     15758 WT1      5068     TIP3     H1       HT       0.417000        1.0080           0
     15759 WT1      5068     TIP3     H2       HT       0.417000        1.0080           0
     15760 WT1      5069     TIP3     OH2      OT      -0.834000       15.9994           0
     15761 WT1      5069     TIP3     H1       HT       0.417000        1.0080           0
     15762 WT1      5069     TIP3     H2       HT       0.417000        1.0080           0
     15763 WT1      5070     TIP3     OH2      OT      -0.834000       15.9994           0
     15764 WT1      5070     TIP3     H1       HT       0.417000        1.0080           0
     15765 WT1      5070     TIP3     H2       HT       0.417000        1.0080           0
     15766 WT1      5071     TIP3     OH2      OT      -0.834000       15.9994           0
     15767 WT1      5071     TIP3     H1       HT       0.417000        1.0080           0
     15768 WT1      5071     TIP3     H2       HT       0.417000        1.0080           0
     15769 WT1      5072     TIP3     OH2      OT      -0.834000       15.9994           0
     15770 WT1      5072     TIP3     H1       HT       0.417000        1.0080           0
     15771 WT1      5072     TIP3     H2       HT       0.417000        1.0080           0
     15772 WT1      5073     TIP3     OH2      OT      -0.834000       15.9994           0
     15773 WT1      5073     TIP3     H1       HT       0.417000        1.0080           0
     15774 WT1      5073     TIP3     H2       HT       0.417000        1.0080           0
     15775 WT1      5074     TIP3     OH2      OT      -0.834000       15.9994           0
     15776 WT1      5074     TIP3     H1       HT       0.417000        1.0080           0
     15777 WT1      5074     TIP3     H2       HT       0.417000        1.0080           0
     15778 WT1      5075     TIP3     OH2      OT      -0.834000       15.9994           0
     15779 WT1      5075     TIP3     H1       HT       0.417000        1.0080           0
     15780 WT1      5075     TIP3     H2       HT       0.417000        1.0080           0
     15781 WT1      5076     TIP3     OH2      OT      -0.834000       15.9994           0
     15782 WT1      5076     TIP3     H1       HT       0.417000        1.0080           0
     15783 WT1      5076     TIP3     H2       HT       0.417000        1.0080           0
     15784 WT1      5077     TIP3     OH2      OT      -0.834000       15.9994           0
     15785 WT1      5077     TIP3     H1       HT       0.417000        1.0080           0
     15786 WT1      5077     TIP3     H2       HT       0.417000        1.0080           0
     15787 WT1      5078     TIP3     OH2      OT      -0.834000       15.9994           0
     15788 WT1      5078     TIP3     H1       HT       0.417000        1.0080           0
     15789 WT1      5078     TIP3     H2       HT       0.417000        1.0080           0
     15790 WT1      5079     TIP3     OH2      OT      -0.834000       15.9994           0
     15791 WT1      5079     TIP3     H1       HT       0.417000        1.0080           0
     15792 WT1      5079     TIP3     H2       HT       0.417000        1.0080           0
     15793 WT1      5080     TIP3     OH2      OT      -0.834000       15.9994           0
     15794 WT1      5080     TIP3     H1       HT       0.417000        1.0080           0
     15795 WT1      5080     TIP3     H2       HT       0.417000        1.0080           0
     15796 WT1      5081     TIP3     OH2      OT      -0.834000       15.9994           0
     15797 WT1      5081     TIP3     H1       HT       0.417000        1.0080           0
     15798 WT1      5081     TIP3     H2       HT       0.417000        1.0080           0
     15799 WT1      5082     TIP3     OH2      OT      -0.834000       15.9994           0
     15800 WT1      5082     TIP3     H1       HT       0.417000        1.0080           0
     15801 WT1      5082     TIP3     H2       HT       0.417000        1.0080           0
     15802 WT1      5083     TIP3     OH2      OT      -0.834000       15.9994           0
     15803 WT1      5083     TIP3     H1       HT       0.417000        1.0080           0
     15804 WT1      5083     TIP3     H2       HT       0.417000        1.0080           0
     15805 WT1      5084     TIP3     OH2      OT      -0.834000       15.9994           0
     15806 WT1      5084     TIP3     H1       HT       0.417000        1.0080           0
     15807 WT1      5084     TIP3     H2       HT       0.417000        1.0080           0
     15808 WT1      5085     TIP3     OH2      OT      -0.834000       15.9994           0
     15809 WT1      5085     TIP3     H1       HT       0.417000        1.0080           0
     15810 WT1      5085     TIP3     H2       HT       0.417000        1.0080           0
     15811 WT1      5086     TIP3     OH2      OT      -0.834000       15.9994           0
     15812 WT1      5086     TIP3     H1       HT       0.417000        1.0080           0
     15813 WT1      5086     TIP3     H2       HT       0.417000        1.0080           0
     15814 WT1      5087     TIP3     OH2      OT      -0.834000       15.9994           0
     15815 WT1      5087     TIP3     H1       HT       0.417000        1.0080           0
     15816 WT1      5087     TIP3     H2       HT       0.417000        1.0080           0
     15817 WT1      5088     TIP3     OH2      OT      -0.834000       15.9994           0
     15818 WT1      5088     TIP3     H1       HT       0.417000        1.0080           0
     15819 WT1      5088     TIP3     H2       HT       0.417000        1.0080           0
     15820 WT1      5089     TIP3     OH2      OT      -0.834000       15.9994           0
     15821 WT1      5089     TIP3     H1       HT       0.417000        1.0080           0
     15822 WT1      5089     TIP3     H2       HT       0.417000        1.0080           0
     15823 WT1      5090     TIP3     OH2      OT      -0.834000       15.9994           0
     15824 WT1      5090     TIP3     H1       HT       0.417000        1.0080           0
     15825 WT1      5090     TIP3     H2       HT       0.417000        1.0080           0
     15826 WT1      5091     TIP3     OH2      OT      -0.834000       15.9994           0
     15827 WT1      5091     TIP3     H1       HT       0.417000        1.0080           0
     15828 WT1      5091     TIP3     H2       HT       0.417000        1.0080           0
     15829 WT1      5092     TIP3     OH2      OT      -0.834000       15.9994           0
     15830 WT1      5092     TIP3     H1       HT       0.417000        1.0080           0
     15831 WT1      5092     TIP3     H2       HT       0.417000        1.0080           0
     15832 WT1      5093     TIP3     OH2      OT      -0.834000       15.9994           0
     15833 WT1      5093     TIP3     H1       HT       0.417000        1.0080           0
     15834 WT1      5093     TIP3     H2       HT       0.417000        1.0080           0
     15835 WT1      5094     TIP3     OH2      OT      -0.834000       15.9994           0
     15836 WT1      5094     TIP3     H1       HT       0.417000        1.0080           0
     15837 WT1      5094     TIP3     H2       HT       0.417000        1.0080           0
     15838 WT1      5095     TIP3     OH2      OT      -0.834000       15.9994           0
     15839 WT1      5095     TIP3     H1       HT       0.417000        1.0080           0
     15840 WT1      5095     TIP3     H2       HT       0.417000        1.0080           0
     15841 WT1      5096     TIP3     OH2      OT      -0.834000       15.9994           0
     15842 WT1      5096     TIP3     H1       HT       0.417000        1.0080           0
     15843 WT1      5096     TIP3     H2       HT       0.417000        1.0080           0
     15844 WT1      5097     TIP3     OH2      OT      -0.834000       15.9994           0
     15845 WT1      5097     TIP3     H1       HT       0.417000        1.0080           0
     15846 WT1      5097     TIP3     H2       HT       0.417000        1.0080           0
     15847 WT1      5098     TIP3     OH2      OT      -0.834000       15.9994           0
     15848 WT1      5098     TIP3     H1       HT       0.417000        1.0080           0
     15849 WT1      5098     TIP3     H2       HT       0.417000        1.0080           0
     15850 WT1      5099     TIP3     OH2      OT      -0.834000       15.9994           0
     15851 WT1      5099     TIP3     H1       HT       0.417000        1.0080           0
     15852 WT1      5099     TIP3     H2       HT       0.417000        1.0080           0
     15853 WT1      5100     TIP3     OH2      OT      -0.834000       15.9994           0
     15854 WT1      5100     TIP3     H1       HT       0.417000        1.0080           0
     15855 WT1      5100     TIP3     H2       HT       0.417000        1.0080           0
     15856 WT1      5101     TIP3     OH2      OT      -0.834000       15.9994           0
     15857 WT1      5101     TIP3     H1       HT       0.417000        1.0080           0
     15858 WT1      5101     TIP3     H2       HT       0.417000        1.0080           0
     15859 WT1      5102     TIP3     OH2      OT      -0.834000       15.9994           0
     15860 WT1      5102     TIP3     H1       HT       0.417000        1.0080           0
     15861 WT1      5102     TIP3     H2       HT       0.417000        1.0080           0
     15862 WT1      5103     TIP3     OH2      OT      -0.834000       15.9994           0
     15863 WT1      5103     TIP3     H1       HT       0.417000        1.0080           0
     15864 WT1      5103     TIP3     H2       HT       0.417000        1.0080           0
     15865 WT1      5104     TIP3     OH2      OT      -0.834000       15.9994           0
     15866 WT1      5104     TIP3     H1       HT       0.417000        1.0080           0
     15867 WT1      5104     TIP3     H2       HT       0.417000        1.0080           0
     15868 WT1      5105     TIP3     OH2      OT      -0.834000       15.9994           0
     15869 WT1      5105     TIP3     H1       HT       0.417000        1.0080           0
     15870 WT1      5105     TIP3     H2       HT       0.417000        1.0080           0
     15871 WT1      5106     TIP3     OH2      OT      -0.834000       15.9994           0
     15872 WT1      5106     TIP3     H1       HT       0.417000        1.0080           0
     15873 WT1      5106     TIP3     H2       HT       0.417000        1.0080           0
     15874 WT1      5107     TIP3     OH2      OT      -0.834000       15.9994           0
     15875 WT1      5107     TIP3     H1       HT       0.417000        1.0080           0
     15876 WT1      5107     TIP3     H2       HT       0.417000        1.0080           0
     15877 WT1      5108     TIP3     OH2      OT      -0.834000       15.9994           0
     15878 WT1      5108     TIP3     H1       HT       0.417000        1.0080           0
     15879 WT1      5108     TIP3     H2       HT       0.417000        1.0080           0
     15880 WT1      5109     TIP3     OH2      OT      -0.834000       15.9994           0
     15881 WT1      5109     TIP3     H1       HT       0.417000        1.0080           0
     15882 WT1      5109     TIP3     H2       HT       0.417000        1.0080           0
     15883 WT1      5110     TIP3     OH2      OT      -0.834000       15.9994           0
     15884 WT1      5110     TIP3     H1       HT       0.417000        1.0080           0
     15885 WT1      5110     TIP3     H2       HT       0.417000        1.0080           0
     15886 WT1      5111     TIP3     OH2      OT      -0.834000       15.9994           0
     15887 WT1      5111     TIP3     H1       HT       0.417000        1.0080           0
     15888 WT1      5111     TIP3     H2       HT       0.417000        1.0080           0
     15889 WT1      5112     TIP3     OH2      OT      -0.834000       15.9994           0
     15890 WT1      5112     TIP3     H1       HT       0.417000        1.0080           0
     15891 WT1      5112     TIP3     H2       HT       0.417000        1.0080           0
     15892 WT1      5113     TIP3     OH2      OT      -0.834000       15.9994           0
     15893 WT1      5113     TIP3     H1       HT       0.417000        1.0080           0
     15894 WT1      5113     TIP3     H2       HT       0.417000        1.0080           0
     15895 WT1      5114     TIP3     OH2      OT      -0.834000       15.9994           0
     15896 WT1      5114     TIP3     H1       HT       0.417000        1.0080           0
     15897 WT1      5114     TIP3     H2       HT       0.417000        1.0080           0
     15898 WT1      5115     TIP3     OH2      OT      -0.834000       15.9994           0
     15899 WT1      5115     TIP3     H1       HT       0.417000        1.0080           0
     15900 WT1      5115     TIP3     H2       HT       0.417000        1.0080           0
     15901 WT1      5116     TIP3     OH2      OT      -0.834000       15.9994           0
     15902 WT1      5116     TIP3     H1       HT       0.417000        1.0080           0
     15903 WT1      5116     TIP3     H2       HT       0.417000        1.0080           0
     15904 WT1      5117     TIP3     OH2      OT      -0.834000       15.9994           0
     15905 WT1      5117     TIP3     H1       HT       0.417000        1.0080           0
     15906 WT1      5117     TIP3     H2       HT       0.417000        1.0080           0
     15907 WT1      5118     TIP3     OH2      OT      -0.834000       15.9994           0
     15908 WT1      5118     TIP3     H1       HT       0.417000        1.0080           0
     15909 WT1      5118     TIP3     H2       HT       0.417000        1.0080           0
     15910 WT1      5119     TIP3     OH2      OT      -0.834000       15.9994           0
     15911 WT1      5119     TIP3     H1       HT       0.417000        1.0080           0
     15912 WT1      5119     TIP3     H2       HT       0.417000        1.0080           0
     15913 WT1      5120     TIP3     OH2      OT      -0.834000       15.9994           0
     15914 WT1      5120     TIP3     H1       HT       0.417000        1.0080           0
     15915 WT1      5120     TIP3     H2       HT       0.417000        1.0080           0
     15916 WT1      5121     TIP3     OH2      OT      -0.834000       15.9994           0
     15917 WT1      5121     TIP3     H1       HT       0.417000        1.0080           0
     15918 WT1      5121     TIP3     H2       HT       0.417000        1.0080           0
     15919 WT1      5122     TIP3     OH2      OT      -0.834000       15.9994           0
     15920 WT1      5122     TIP3     H1       HT       0.417000        1.0080           0
     15921 WT1      5122     TIP3     H2       HT       0.417000        1.0080           0
     15922 WT1      5123     TIP3     OH2      OT      -0.834000       15.9994           0
     15923 WT1      5123     TIP3     H1       HT       0.417000        1.0080           0
     15924 WT1      5123     TIP3     H2       HT       0.417000        1.0080           0
     15925 WT1      5124     TIP3     OH2      OT      -0.834000       15.9994           0
     15926 WT1      5124     TIP3     H1       HT       0.417000        1.0080           0
     15927 WT1      5124     TIP3     H2       HT       0.417000        1.0080           0
     15928 WT1      5125     TIP3     OH2      OT      -0.834000       15.9994           0
     15929 WT1      5125     TIP3     H1       HT       0.417000        1.0080           0
     15930 WT1      5125     TIP3     H2       HT       0.417000        1.0080           0
     15931 WT1      5126     TIP3     OH2      OT      -0.834000       15.9994           0
     15932 WT1      5126     TIP3     H1       HT       0.417000        1.0080           0
     15933 WT1      5126     TIP3     H2       HT       0.417000        1.0080           0
     15934 WT1      5127     TIP3     OH2      OT      -0.834000       15.9994           0
     15935 WT1      5127     TIP3     H1       HT       0.417000        1.0080           0
     15936 WT1      5127     TIP3     H2       HT       0.417000        1.0080           0
     15937 WT1      5128     TIP3     OH2      OT      -0.834000       15.9994           0
     15938 WT1      5128     TIP3     H1       HT       0.417000        1.0080           0
     15939 WT1      5128     TIP3     H2       HT       0.417000        1.0080           0
     15940 WT1      5129     TIP3     OH2      OT      -0.834000       15.9994           0
     15941 WT1      5129     TIP3     H1       HT       0.417000        1.0080           0
     15942 WT1      5129     TIP3     H2       HT       0.417000        1.0080           0
     15943 WT1      5130     TIP3     OH2      OT      -0.834000       15.9994           0
     15944 WT1      5130     TIP3     H1       HT       0.417000        1.0080           0
     15945 WT1      5130     TIP3     H2       HT       0.417000        1.0080           0
     15946 WT1      5131     TIP3     OH2      OT      -0.834000       15.9994           0
     15947 WT1      5131     TIP3     H1       HT       0.417000        1.0080           0
     15948 WT1      5131     TIP3     H2       HT       0.417000        1.0080           0
     15949 WT1      5132     TIP3     OH2      OT      -0.834000       15.9994           0
     15950 WT1      5132     TIP3     H1       HT       0.417000        1.0080           0
     15951 WT1      5132     TIP3     H2       HT       0.417000        1.0080           0
     15952 WT1      5133     TIP3     OH2      OT      -0.834000       15.9994           0
     15953 WT1      5133     TIP3     H1       HT       0.417000        1.0080           0
     15954 WT1      5133     TIP3     H2       HT       0.417000        1.0080           0
     15955 WT1      5134     TIP3     OH2      OT      -0.834000       15.9994           0
     15956 WT1      5134     TIP3     H1       HT       0.417000        1.0080           0
     15957 WT1      5134     TIP3     H2       HT       0.417000        1.0080           0
     15958 WT1      5135     TIP3     OH2      OT      -0.834000       15.9994           0
     15959 WT1      5135     TIP3     H1       HT       0.417000        1.0080           0
     15960 WT1      5135     TIP3     H2       HT       0.417000        1.0080           0
     15961 WT1      5136     TIP3     OH2      OT      -0.834000       15.9994           0
     15962 WT1      5136     TIP3     H1       HT       0.417000        1.0080           0
     15963 WT1      5136     TIP3     H2       HT       0.417000        1.0080           0
     15964 WT1      5137     TIP3     OH2      OT      -0.834000       15.9994           0
     15965 WT1      5137     TIP3     H1       HT       0.417000        1.0080           0
     15966 WT1      5137     TIP3     H2       HT       0.417000        1.0080           0
     15967 WT1      5138     TIP3     OH2      OT      -0.834000       15.9994           0
     15968 WT1      5138     TIP3     H1       HT       0.417000        1.0080           0
     15969 WT1      5138     TIP3     H2       HT       0.417000        1.0080           0
     15970 WT1      5139     TIP3     OH2      OT      -0.834000       15.9994           0
     15971 WT1      5139     TIP3     H1       HT       0.417000        1.0080           0
     15972 WT1      5139     TIP3     H2       HT       0.417000        1.0080           0
     15973 WT1      5141     TIP3     OH2      OT      -0.834000       15.9994           0
     15974 WT1      5141     TIP3     H1       HT       0.417000        1.0080           0
     15975 WT1      5141     TIP3     H2       HT       0.417000        1.0080           0
     15976 WT1      5142     TIP3     OH2      OT      -0.834000       15.9994           0
     15977 WT1      5142     TIP3     H1       HT       0.417000        1.0080           0
     15978 WT1      5142     TIP3     H2       HT       0.417000        1.0080           0
     15979 WT1      5143     TIP3     OH2      OT      -0.834000       15.9994           0
     15980 WT1      5143     TIP3     H1       HT       0.417000        1.0080           0
     15981 WT1      5143     TIP3     H2       HT       0.417000        1.0080           0
     15982 WT1      5144     TIP3     OH2      OT      -0.834000       15.9994           0
     15983 WT1      5144     TIP3     H1       HT       0.417000        1.0080           0
     15984 WT1      5144     TIP3     H2       HT       0.417000        1.0080           0
     15985 WT1      5145     TIP3     OH2      OT      -0.834000       15.9994           0
     15986 WT1      5145     TIP3     H1       HT       0.417000        1.0080           0
     15987 WT1      5145     TIP3     H2       HT       0.417000        1.0080           0
     15988 WT1      5146     TIP3     OH2      OT      -0.834000       15.9994           0
     15989 WT1      5146     TIP3     H1       HT       0.417000        1.0080           0
     15990 WT1      5146     TIP3     H2       HT       0.417000        1.0080           0
     15991 WT1      5147     TIP3     OH2      OT      -0.834000       15.9994           0
     15992 WT1      5147     TIP3     H1       HT       0.417000        1.0080           0
     15993 WT1      5147     TIP3     H2       HT       0.417000        1.0080           0
     15994 WT1      5148     TIP3     OH2      OT      -0.834000       15.9994           0
     15995 WT1      5148     TIP3     H1       HT       0.417000        1.0080           0
     15996 WT1      5148     TIP3     H2       HT       0.417000        1.0080           0
     15997 WT1      5149     TIP3     OH2      OT      -0.834000       15.9994           0
     15998 WT1      5149     TIP3     H1       HT       0.417000        1.0080           0
     15999 WT1      5149     TIP3     H2       HT       0.417000        1.0080           0
     16000 WT1      5150     TIP3     OH2      OT      -0.834000       15.9994           0
     16001 WT1      5150     TIP3     H1       HT       0.417000        1.0080           0
     16002 WT1      5150     TIP3     H2       HT       0.417000        1.0080           0
     16003 WT1      5151     TIP3     OH2      OT      -0.834000       15.9994           0
     16004 WT1      5151     TIP3     H1       HT       0.417000        1.0080           0
     16005 WT1      5151     TIP3     H2       HT       0.417000        1.0080           0
     16006 WT1      5152     TIP3     OH2      OT      -0.834000       15.9994           0
     16007 WT1      5152     TIP3     H1       HT       0.417000        1.0080           0
     16008 WT1      5152     TIP3     H2       HT       0.417000        1.0080           0
     16009 WT1      5153     TIP3     OH2      OT      -0.834000       15.9994           0
     16010 WT1      5153     TIP3     H1       HT       0.417000        1.0080           0
     16011 WT1      5153     TIP3     H2       HT       0.417000        1.0080           0
     16012 WT1      5154     TIP3     OH2      OT      -0.834000       15.9994           0
     16013 WT1      5154     TIP3     H1       HT       0.417000        1.0080           0
     16014 WT1      5154     TIP3     H2       HT       0.417000        1.0080           0
     16015 WT1      5155     TIP3     OH2      OT      -0.834000       15.9994           0
     16016 WT1      5155     TIP3     H1       HT       0.417000        1.0080           0
     16017 WT1      5155     TIP3     H2       HT       0.417000        1.0080           0
     16018 WT1      5156     TIP3     OH2      OT      -0.834000       15.9994           0
     16019 WT1      5156     TIP3     H1       HT       0.417000        1.0080           0
     16020 WT1      5156     TIP3     H2       HT       0.417000        1.0080           0
     16021 WT1      5157     TIP3     OH2      OT      -0.834000       15.9994           0
     16022 WT1      5157     TIP3     H1       HT       0.417000        1.0080           0
     16023 WT1      5157     TIP3     H2       HT       0.417000        1.0080           0
     16024 WT1      5158     TIP3     OH2      OT      -0.834000       15.9994           0
     16025 WT1      5158     TIP3     H1       HT       0.417000        1.0080           0
     16026 WT1      5158     TIP3     H2       HT       0.417000        1.0080           0
     16027 WT1      5159     TIP3     OH2      OT      -0.834000       15.9994           0
     16028 WT1      5159     TIP3     H1       HT       0.417000        1.0080           0
     16029 WT1      5159     TIP3     H2       HT       0.417000        1.0080           0
     16030 WT1      5160     TIP3     OH2      OT      -0.834000       15.9994           0
     16031 WT1      5160     TIP3     H1       HT       0.417000        1.0080           0
     16032 WT1      5160     TIP3     H2       HT       0.417000        1.0080           0
     16033 WT1      5161     TIP3     OH2      OT      -0.834000       15.9994           0
     16034 WT1      5161     TIP3     H1       HT       0.417000        1.0080           0
     16035 WT1      5161     TIP3     H2       HT       0.417000        1.0080           0
     16036 WT1      5162     TIP3     OH2      OT      -0.834000       15.9994           0
     16037 WT1      5162     TIP3     H1       HT       0.417000        1.0080           0
     16038 WT1      5162     TIP3     H2       HT       0.417000        1.0080           0
     16039 WT1      5163     TIP3     OH2      OT      -0.834000       15.9994           0
     16040 WT1      5163     TIP3     H1       HT       0.417000        1.0080           0
     16041 WT1      5163     TIP3     H2       HT       0.417000        1.0080           0
     16042 WT1      5164     TIP3     OH2      OT      -0.834000       15.9994           0
     16043 WT1      5164     TIP3     H1       HT       0.417000        1.0080           0
     16044 WT1      5164     TIP3     H2       HT       0.417000        1.0080           0
     16045 WT1      5165     TIP3     OH2      OT      -0.834000       15.9994           0
     16046 WT1      5165     TIP3     H1       HT       0.417000        1.0080           0
     16047 WT1      5165     TIP3     H2       HT       0.417000        1.0080           0
     16048 WT1      5166     TIP3     OH2      OT      -0.834000       15.9994           0
     16049 WT1      5166     TIP3     H1       HT       0.417000        1.0080           0
     16050 WT1      5166     TIP3     H2       HT       0.417000        1.0080           0
     16051 WT1      5167     TIP3     OH2      OT      -0.834000       15.9994           0
     16052 WT1      5167     TIP3     H1       HT       0.417000        1.0080           0
     16053 WT1      5167     TIP3     H2       HT       0.417000        1.0080           0
     16054 WT1      5168     TIP3     OH2      OT      -0.834000       15.9994           0
     16055 WT1      5168     TIP3     H1       HT       0.417000        1.0080           0
     16056 WT1      5168     TIP3     H2       HT       0.417000        1.0080           0
     16057 WT1      5169     TIP3     OH2      OT      -0.834000       15.9994           0
     16058 WT1      5169     TIP3     H1       HT       0.417000        1.0080           0
     16059 WT1      5169     TIP3     H2       HT       0.417000        1.0080           0
     16060 WT1      5170     TIP3     OH2      OT      -0.834000       15.9994           0
     16061 WT1      5170     TIP3     H1       HT       0.417000        1.0080           0
     16062 WT1      5170     TIP3     H2       HT       0.417000        1.0080           0
     16063 WT1      5171     TIP3     OH2      OT      -0.834000       15.9994           0
     16064 WT1      5171     TIP3     H1       HT       0.417000        1.0080           0
     16065 WT1      5171     TIP3     H2       HT       0.417000        1.0080           0
     16066 WT1      5172     TIP3     OH2      OT      -0.834000       15.9994           0
     16067 WT1      5172     TIP3     H1       HT       0.417000        1.0080           0
     16068 WT1      5172     TIP3     H2       HT       0.417000        1.0080           0
     16069 WT1      5173     TIP3     OH2      OT      -0.834000       15.9994           0
     16070 WT1      5173     TIP3     H1       HT       0.417000        1.0080           0
     16071 WT1      5173     TIP3     H2       HT       0.417000        1.0080           0
     16072 WT1      5174     TIP3     OH2      OT      -0.834000       15.9994           0
     16073 WT1      5174     TIP3     H1       HT       0.417000        1.0080           0
     16074 WT1      5174     TIP3     H2       HT       0.417000        1.0080           0
     16075 WT1      5175     TIP3     OH2      OT      -0.834000       15.9994           0
     16076 WT1      5175     TIP3     H1       HT       0.417000        1.0080           0
     16077 WT1      5175     TIP3     H2       HT       0.417000        1.0080           0
     16078 WT1      5176     TIP3     OH2      OT      -0.834000       15.9994           0
     16079 WT1      5176     TIP3     H1       HT       0.417000        1.0080           0
     16080 WT1      5176     TIP3     H2       HT       0.417000        1.0080           0
     16081 WT1      5177     TIP3     OH2      OT      -0.834000       15.9994           0
     16082 WT1      5177     TIP3     H1       HT       0.417000        1.0080           0
     16083 WT1      5177     TIP3     H2       HT       0.417000        1.0080           0
     16084 WT1      5178     TIP3     OH2      OT      -0.834000       15.9994           0
     16085 WT1      5178     TIP3     H1       HT       0.417000        1.0080           0
     16086 WT1      5178     TIP3     H2       HT       0.417000        1.0080           0
     16087 WT1      5179     TIP3     OH2      OT      -0.834000       15.9994           0
     16088 WT1      5179     TIP3     H1       HT       0.417000        1.0080           0
     16089 WT1      5179     TIP3     H2       HT       0.417000        1.0080           0
     16090 WT1      5180     TIP3     OH2      OT      -0.834000       15.9994           0
     16091 WT1      5180     TIP3     H1       HT       0.417000        1.0080           0
     16092 WT1      5180     TIP3     H2       HT       0.417000        1.0080           0
     16093 WT1      5181     TIP3     OH2      OT      -0.834000       15.9994           0
     16094 WT1      5181     TIP3     H1       HT       0.417000        1.0080           0
     16095 WT1      5181     TIP3     H2       HT       0.417000        1.0080           0
     16096 WT1      5182     TIP3     OH2      OT      -0.834000       15.9994           0
     16097 WT1      5182     TIP3     H1       HT       0.417000        1.0080           0
     16098 WT1      5182     TIP3     H2       HT       0.417000        1.0080           0
     16099 WT1      5183     TIP3     OH2      OT      -0.834000       15.9994           0
     16100 WT1      5183     TIP3     H1       HT       0.417000        1.0080           0
     16101 WT1      5183     TIP3     H2       HT       0.417000        1.0080           0
     16102 WT1      5184     TIP3     OH2      OT      -0.834000       15.9994           0
     16103 WT1      5184     TIP3     H1       HT       0.417000        1.0080           0
     16104 WT1      5184     TIP3     H2       HT       0.417000        1.0080           0
     16105 WT1      5185     TIP3     OH2      OT      -0.834000       15.9994           0
     16106 WT1      5185     TIP3     H1       HT       0.417000        1.0080           0
     16107 WT1      5185     TIP3     H2       HT       0.417000        1.0080           0
     16108 WT1      5186     TIP3     OH2      OT      -0.834000       15.9994           0
     16109 WT1      5186     TIP3     H1       HT       0.417000        1.0080           0
     16110 WT1      5186     TIP3     H2       HT       0.417000        1.0080           0
     16111 WT1      5187     TIP3     OH2      OT      -0.834000       15.9994           0
     16112 WT1      5187     TIP3     H1       HT       0.417000        1.0080           0
     16113 WT1      5187     TIP3     H2       HT       0.417000        1.0080           0
     16114 WT1      5188     TIP3     OH2      OT      -0.834000       15.9994           0
     16115 WT1      5188     TIP3     H1       HT       0.417000        1.0080           0
     16116 WT1      5188     TIP3     H2       HT       0.417000        1.0080           0
     16117 WT1      5189     TIP3     OH2      OT      -0.834000       15.9994           0
     16118 WT1      5189     TIP3     H1       HT       0.417000        1.0080           0
     16119 WT1      5189     TIP3     H2       HT       0.417000        1.0080           0
     16120 WT1      5190     TIP3     OH2      OT      -0.834000       15.9994           0
     16121 WT1      5190     TIP3     H1       HT       0.417000        1.0080           0
     16122 WT1      5190     TIP3     H2       HT       0.417000        1.0080           0
     16123 WT1      5191     TIP3     OH2      OT      -0.834000       15.9994           0
     16124 WT1      5191     TIP3     H1       HT       0.417000        1.0080           0
     16125 WT1      5191     TIP3     H2       HT       0.417000        1.0080           0
     16126 WT1      5192     TIP3     OH2      OT      -0.834000       15.9994           0
     16127 WT1      5192     TIP3     H1       HT       0.417000        1.0080           0
     16128 WT1      5192     TIP3     H2       HT       0.417000        1.0080           0
     16129 WT1      5193     TIP3     OH2      OT      -0.834000       15.9994           0
     16130 WT1      5193     TIP3     H1       HT       0.417000        1.0080           0
     16131 WT1      5193     TIP3     H2       HT       0.417000        1.0080           0
     16132 WT1      5194     TIP3     OH2      OT      -0.834000       15.9994           0
     16133 WT1      5194     TIP3     H1       HT       0.417000        1.0080           0
     16134 WT1      5194     TIP3     H2       HT       0.417000        1.0080           0
     16135 WT1      5195     TIP3     OH2      OT      -0.834000       15.9994           0
     16136 WT1      5195     TIP3     H1       HT       0.417000        1.0080           0
     16137 WT1      5195     TIP3     H2       HT       0.417000        1.0080           0
     16138 WT1      5196     TIP3     OH2      OT      -0.834000       15.9994           0
     16139 WT1      5196     TIP3     H1       HT       0.417000        1.0080           0
     16140 WT1      5196     TIP3     H2       HT       0.417000        1.0080           0
     16141 WT1      5197     TIP3     OH2      OT      -0.834000       15.9994           0
     16142 WT1      5197     TIP3     H1       HT       0.417000        1.0080           0
     16143 WT1      5197     TIP3     H2       HT       0.417000        1.0080           0
     16144 WT1      5198     TIP3     OH2      OT      -0.834000       15.9994           0
     16145 WT1      5198     TIP3     H1       HT       0.417000        1.0080           0
     16146 WT1      5198     TIP3     H2       HT       0.417000        1.0080           0
     16147 WT1      5199     TIP3     OH2      OT      -0.834000       15.9994           0
     16148 WT1      5199     TIP3     H1       HT       0.417000        1.0080           0
     16149 WT1      5199     TIP3     H2       HT       0.417000        1.0080           0
     16150 WT1      5200     TIP3     OH2      OT      -0.834000       15.9994           0
     16151 WT1      5200     TIP3     H1       HT       0.417000        1.0080           0
     16152 WT1      5200     TIP3     H2       HT       0.417000        1.0080           0
     16153 WT1      5201     TIP3     OH2      OT      -0.834000       15.9994           0
     16154 WT1      5201     TIP3     H1       HT       0.417000        1.0080           0
     16155 WT1      5201     TIP3     H2       HT       0.417000        1.0080           0
     16156 WT1      5202     TIP3     OH2      OT      -0.834000       15.9994           0
     16157 WT1      5202     TIP3     H1       HT       0.417000        1.0080           0
     16158 WT1      5202     TIP3     H2       HT       0.417000        1.0080           0
     16159 WT1      5203     TIP3     OH2      OT      -0.834000       15.9994           0
     16160 WT1      5203     TIP3     H1       HT       0.417000        1.0080           0
     16161 WT1      5203     TIP3     H2       HT       0.417000        1.0080           0
     16162 WT1      5204     TIP3     OH2      OT      -0.834000       15.9994           0
     16163 WT1      5204     TIP3     H1       HT       0.417000        1.0080           0
     16164 WT1      5204     TIP3     H2       HT       0.417000        1.0080           0
     16165 WT1      5205     TIP3     OH2      OT      -0.834000       15.9994           0
     16166 WT1      5205     TIP3     H1       HT       0.417000        1.0080           0
     16167 WT1      5205     TIP3     H2       HT       0.417000        1.0080           0
     16168 WT1      5206     TIP3     OH2      OT      -0.834000       15.9994           0
     16169 WT1      5206     TIP3     H1       HT       0.417000        1.0080           0
     16170 WT1      5206     TIP3     H2       HT       0.417000        1.0080           0
     16171 WT1      5207     TIP3     OH2      OT      -0.834000       15.9994           0
     16172 WT1      5207     TIP3     H1       HT       0.417000        1.0080           0
     16173 WT1      5207     TIP3     H2       HT       0.417000        1.0080           0
     16174 WT1      5208     TIP3     OH2      OT      -0.834000       15.9994           0
     16175 WT1      5208     TIP3     H1       HT       0.417000        1.0080           0
     16176 WT1      5208     TIP3     H2       HT       0.417000        1.0080           0
     16177 WT1      5209     TIP3     OH2      OT      -0.834000       15.9994           0
     16178 WT1      5209     TIP3     H1       HT       0.417000        1.0080           0
     16179 WT1      5209     TIP3     H2       HT       0.417000        1.0080           0
     16180 WT1      5210     TIP3     OH2      OT      -0.834000       15.9994           0
     16181 WT1      5210     TIP3     H1       HT       0.417000        1.0080           0
     16182 WT1      5210     TIP3     H2       HT       0.417000        1.0080           0
     16183 WT1      5211     TIP3     OH2      OT      -0.834000       15.9994           0
     16184 WT1      5211     TIP3     H1       HT       0.417000        1.0080           0
     16185 WT1      5211     TIP3     H2       HT       0.417000        1.0080           0
     16186 WT1      5212     TIP3     OH2      OT      -0.834000       15.9994           0
     16187 WT1      5212     TIP3     H1       HT       0.417000        1.0080           0
     16188 WT1      5212     TIP3     H2       HT       0.417000        1.0080           0
     16189 WT1      5213     TIP3     OH2      OT      -0.834000       15.9994           0
     16190 WT1      5213     TIP3     H1       HT       0.417000        1.0080           0
     16191 WT1      5213     TIP3     H2       HT       0.417000        1.0080           0
     16192 WT1      5214     TIP3     OH2      OT      -0.834000       15.9994           0
     16193 WT1      5214     TIP3     H1       HT       0.417000        1.0080           0
     16194 WT1      5214     TIP3     H2       HT       0.417000        1.0080           0
     16195 WT1      5216     TIP3     OH2      OT      -0.834000       15.9994           0
     16196 WT1      5216     TIP3     H1       HT       0.417000        1.0080           0
     16197 WT1      5216     TIP3     H2       HT       0.417000        1.0080           0
     16198 WT1      5217     TIP3     OH2      OT      -0.834000       15.9994           0
     16199 WT1      5217     TIP3     H1       HT       0.417000        1.0080           0
     16200 WT1      5217     TIP3     H2       HT       0.417000        1.0080           0
     16201 WT1      5218     TIP3     OH2      OT      -0.834000       15.9994           0
     16202 WT1      5218     TIP3     H1       HT       0.417000        1.0080           0
     16203 WT1      5218     TIP3     H2       HT       0.417000        1.0080           0
     16204 WT1      5219     TIP3     OH2      OT      -0.834000       15.9994           0
     16205 WT1      5219     TIP3     H1       HT       0.417000        1.0080           0
     16206 WT1      5219     TIP3     H2       HT       0.417000        1.0080           0
     16207 WT1      5220     TIP3     OH2      OT      -0.834000       15.9994           0
     16208 WT1      5220     TIP3     H1       HT       0.417000        1.0080           0
     16209 WT1      5220     TIP3     H2       HT       0.417000        1.0080           0
     16210 WT1      5221     TIP3     OH2      OT      -0.834000       15.9994           0
     16211 WT1      5221     TIP3     H1       HT       0.417000        1.0080           0
     16212 WT1      5221     TIP3     H2       HT       0.417000        1.0080           0
     16213 WT1      5222     TIP3     OH2      OT      -0.834000       15.9994           0
     16214 WT1      5222     TIP3     H1       HT       0.417000        1.0080           0
     16215 WT1      5222     TIP3     H2       HT       0.417000        1.0080           0
     16216 WT1      5223     TIP3     OH2      OT      -0.834000       15.9994           0
     16217 WT1      5223     TIP3     H1       HT       0.417000        1.0080           0
     16218 WT1      5223     TIP3     H2       HT       0.417000        1.0080           0
     16219 WT1      5224     TIP3     OH2      OT      -0.834000       15.9994           0
     16220 WT1      5224     TIP3     H1       HT       0.417000        1.0080           0
     16221 WT1      5224     TIP3     H2       HT       0.417000        1.0080           0
     16222 WT1      5225     TIP3     OH2      OT      -0.834000       15.9994           0
     16223 WT1      5225     TIP3     H1       HT       0.417000        1.0080           0
     16224 WT1      5225     TIP3     H2       HT       0.417000        1.0080           0
     16225 WT1      5226     TIP3     OH2      OT      -0.834000       15.9994           0
     16226 WT1      5226     TIP3     H1       HT       0.417000        1.0080           0
     16227 WT1      5226     TIP3     H2       HT       0.417000        1.0080           0
     16228 WT1      5227     TIP3     OH2      OT      -0.834000       15.9994           0
     16229 WT1      5227     TIP3     H1       HT       0.417000        1.0080           0
     16230 WT1      5227     TIP3     H2       HT       0.417000        1.0080           0
     16231 WT1      5228     TIP3     OH2      OT      -0.834000       15.9994           0
     16232 WT1      5228     TIP3     H1       HT       0.417000        1.0080           0
     16233 WT1      5228     TIP3     H2       HT       0.417000        1.0080           0
     16234 WT1      5229     TIP3     OH2      OT      -0.834000       15.9994           0
     16235 WT1      5229     TIP3     H1       HT       0.417000        1.0080           0
     16236 WT1      5229     TIP3     H2       HT       0.417000        1.0080           0
     16237 WT1      5230     TIP3     OH2      OT      -0.834000       15.9994           0
     16238 WT1      5230     TIP3     H1       HT       0.417000        1.0080           0
     16239 WT1      5230     TIP3     H2       HT       0.417000        1.0080           0
     16240 WT1      5231     TIP3     OH2      OT      -0.834000       15.9994           0
     16241 WT1      5231     TIP3     H1       HT       0.417000        1.0080           0
     16242 WT1      5231     TIP3     H2       HT       0.417000        1.0080           0
     16243 WT1      5232     TIP3     OH2      OT      -0.834000       15.9994           0
     16244 WT1      5232     TIP3     H1       HT       0.417000        1.0080           0
     16245 WT1      5232     TIP3     H2       HT       0.417000        1.0080           0
     16246 WT1      5233     TIP3     OH2      OT      -0.834000       15.9994           0
     16247 WT1      5233     TIP3     H1       HT       0.417000        1.0080           0
     16248 WT1      5233     TIP3     H2       HT       0.417000        1.0080           0
     16249 WT1      5234     TIP3     OH2      OT      -0.834000       15.9994           0
     16250 WT1      5234     TIP3     H1       HT       0.417000        1.0080           0
     16251 WT1      5234     TIP3     H2       HT       0.417000        1.0080           0
     16252 WT1      5235     TIP3     OH2      OT      -0.834000       15.9994           0
     16253 WT1      5235     TIP3     H1       HT       0.417000        1.0080           0
     16254 WT1      5235     TIP3     H2       HT       0.417000        1.0080           0
     16255 WT1      5236     TIP3     OH2      OT      -0.834000       15.9994           0
     16256 WT1      5236     TIP3     H1       HT       0.417000        1.0080           0
     16257 WT1      5236     TIP3     H2       HT       0.417000        1.0080           0
     16258 WT1      5237     TIP3     OH2      OT      -0.834000       15.9994           0
     16259 WT1      5237     TIP3     H1       HT       0.417000        1.0080           0
     16260 WT1      5237     TIP3     H2       HT       0.417000        1.0080           0
     16261 WT1      5238     TIP3     OH2      OT      -0.834000       15.9994           0
     16262 WT1      5238     TIP3     H1       HT       0.417000        1.0080           0
     16263 WT1      5238     TIP3     H2       HT       0.417000        1.0080           0
     16264 WT1      5239     TIP3     OH2      OT      -0.834000       15.9994           0
     16265 WT1      5239     TIP3     H1       HT       0.417000        1.0080           0
     16266 WT1      5239     TIP3     H2       HT       0.417000        1.0080           0
     16267 WT1      5240     TIP3     OH2      OT      -0.834000       15.9994           0
     16268 WT1      5240     TIP3     H1       HT       0.417000        1.0080           0
     16269 WT1      5240     TIP3     H2       HT       0.417000        1.0080           0
     16270 WT1      5241     TIP3     OH2      OT      -0.834000       15.9994           0
     16271 WT1      5241     TIP3     H1       HT       0.417000        1.0080           0
     16272 WT1      5241     TIP3     H2       HT       0.417000        1.0080           0
     16273 WT1      5242     TIP3     OH2      OT      -0.834000       15.9994           0
     16274 WT1      5242     TIP3     H1       HT       0.417000        1.0080           0
     16275 WT1      5242     TIP3     H2       HT       0.417000        1.0080           0
     16276 WT1      5243     TIP3     OH2      OT      -0.834000       15.9994           0
     16277 WT1      5243     TIP3     H1       HT       0.417000        1.0080           0
     16278 WT1      5243     TIP3     H2       HT       0.417000        1.0080           0
     16279 WT1      5244     TIP3     OH2      OT      -0.834000       15.9994           0
     16280 WT1      5244     TIP3     H1       HT       0.417000        1.0080           0
     16281 WT1      5244     TIP3     H2       HT       0.417000        1.0080           0
     16282 WT1      5245     TIP3     OH2      OT      -0.834000       15.9994           0
     16283 WT1      5245     TIP3     H1       HT       0.417000        1.0080           0
     16284 WT1      5245     TIP3     H2       HT       0.417000        1.0080           0
     16285 WT1      5246     TIP3     OH2      OT      -0.834000       15.9994           0
     16286 WT1      5246     TIP3     H1       HT       0.417000        1.0080           0
     16287 WT1      5246     TIP3     H2       HT       0.417000        1.0080           0
     16288 WT1      5247     TIP3     OH2      OT      -0.834000       15.9994           0
     16289 WT1      5247     TIP3     H1       HT       0.417000        1.0080           0
     16290 WT1      5247     TIP3     H2       HT       0.417000        1.0080           0
     16291 WT1      5248     TIP3     OH2      OT      -0.834000       15.9994           0
     16292 WT1      5248     TIP3     H1       HT       0.417000        1.0080           0
     16293 WT1      5248     TIP3     H2       HT       0.417000        1.0080           0
     16294 WT1      5249     TIP3     OH2      OT      -0.834000       15.9994           0
     16295 WT1      5249     TIP3     H1       HT       0.417000        1.0080           0
     16296 WT1      5249     TIP3     H2       HT       0.417000        1.0080           0
     16297 WT1      5250     TIP3     OH2      OT      -0.834000       15.9994           0
     16298 WT1      5250     TIP3     H1       HT       0.417000        1.0080           0
     16299 WT1      5250     TIP3     H2       HT       0.417000        1.0080           0
     16300 WT1      5251     TIP3     OH2      OT      -0.834000       15.9994           0
     16301 WT1      5251     TIP3     H1       HT       0.417000        1.0080           0
     16302 WT1      5251     TIP3     H2       HT       0.417000        1.0080           0
     16303 WT1      5252     TIP3     OH2      OT      -0.834000       15.9994           0
     16304 WT1      5252     TIP3     H1       HT       0.417000        1.0080           0
     16305 WT1      5252     TIP3     H2       HT       0.417000        1.0080           0
     16306 WT1      5253     TIP3     OH2      OT      -0.834000       15.9994           0
     16307 WT1      5253     TIP3     H1       HT       0.417000        1.0080           0
     16308 WT1      5253     TIP3     H2       HT       0.417000        1.0080           0
     16309 WT1      5254     TIP3     OH2      OT      -0.834000       15.9994           0
     16310 WT1      5254     TIP3     H1       HT       0.417000        1.0080           0
     16311 WT1      5254     TIP3     H2       HT       0.417000        1.0080           0
     16312 WT1      5255     TIP3     OH2      OT      -0.834000       15.9994           0
     16313 WT1      5255     TIP3     H1       HT       0.417000        1.0080           0
     16314 WT1      5255     TIP3     H2       HT       0.417000        1.0080           0
     16315 WT1      5256     TIP3     OH2      OT      -0.834000       15.9994           0
     16316 WT1      5256     TIP3     H1       HT       0.417000        1.0080           0
     16317 WT1      5256     TIP3     H2       HT       0.417000        1.0080           0
     16318 WT1      5257     TIP3     OH2      OT      -0.834000       15.9994           0
     16319 WT1      5257     TIP3     H1       HT       0.417000        1.0080           0
     16320 WT1      5257     TIP3     H2       HT       0.417000        1.0080           0
     16321 WT1      5258     TIP3     OH2      OT      -0.834000       15.9994           0
     16322 WT1      5258     TIP3     H1       HT       0.417000        1.0080           0
     16323 WT1      5258     TIP3     H2       HT       0.417000        1.0080           0
     16324 WT1      5259     TIP3     OH2      OT      -0.834000       15.9994           0
     16325 WT1      5259     TIP3     H1       HT       0.417000        1.0080           0
     16326 WT1      5259     TIP3     H2       HT       0.417000        1.0080           0
     16327 WT1      5260     TIP3     OH2      OT      -0.834000       15.9994           0
     16328 WT1      5260     TIP3     H1       HT       0.417000        1.0080           0
     16329 WT1      5260     TIP3     H2       HT       0.417000        1.0080           0
     16330 WT1      5261     TIP3     OH2      OT      -0.834000       15.9994           0
     16331 WT1      5261     TIP3     H1       HT       0.417000        1.0080           0
     16332 WT1      5261     TIP3     H2       HT       0.417000        1.0080           0
     16333 WT1      5262     TIP3     OH2      OT      -0.834000       15.9994           0
     16334 WT1      5262     TIP3     H1       HT       0.417000        1.0080           0
     16335 WT1      5262     TIP3     H2       HT       0.417000        1.0080           0
     16336 WT1      5263     TIP3     OH2      OT      -0.834000       15.9994           0
     16337 WT1      5263     TIP3     H1       HT       0.417000        1.0080           0
     16338 WT1      5263     TIP3     H2       HT       0.417000        1.0080           0
     16339 WT1      5264     TIP3     OH2      OT      -0.834000       15.9994           0
     16340 WT1      5264     TIP3     H1       HT       0.417000        1.0080           0
     16341 WT1      5264     TIP3     H2       HT       0.417000        1.0080           0
     16342 WT1      5265     TIP3     OH2      OT      -0.834000       15.9994           0
     16343 WT1      5265     TIP3     H1       HT       0.417000        1.0080           0
     16344 WT1      5265     TIP3     H2       HT       0.417000        1.0080           0
     16345 WT1      5266     TIP3     OH2      OT      -0.834000       15.9994           0
     16346 WT1      5266     TIP3     H1       HT       0.417000        1.0080           0
     16347 WT1      5266     TIP3     H2       HT       0.417000        1.0080           0
     16348 WT1      5267     TIP3     OH2      OT      -0.834000       15.9994           0
     16349 WT1      5267     TIP3     H1       HT       0.417000        1.0080           0
     16350 WT1      5267     TIP3     H2       HT       0.417000        1.0080           0
     16351 WT1      5268     TIP3     OH2      OT      -0.834000       15.9994           0
     16352 WT1      5268     TIP3     H1       HT       0.417000        1.0080           0
     16353 WT1      5268     TIP3     H2       HT       0.417000        1.0080           0
     16354 WT1      5269     TIP3     OH2      OT      -0.834000       15.9994           0
     16355 WT1      5269     TIP3     H1       HT       0.417000        1.0080           0
     16356 WT1      5269     TIP3     H2       HT       0.417000        1.0080           0
     16357 WT1      5270     TIP3     OH2      OT      -0.834000       15.9994           0
     16358 WT1      5270     TIP3     H1       HT       0.417000        1.0080           0
     16359 WT1      5270     TIP3     H2       HT       0.417000        1.0080           0
     16360 WT1      5271     TIP3     OH2      OT      -0.834000       15.9994           0
     16361 WT1      5271     TIP3     H1       HT       0.417000        1.0080           0
     16362 WT1      5271     TIP3     H2       HT       0.417000        1.0080           0
     16363 WT1      5272     TIP3     OH2      OT      -0.834000       15.9994           0
     16364 WT1      5272     TIP3     H1       HT       0.417000        1.0080           0
     16365 WT1      5272     TIP3     H2       HT       0.417000        1.0080           0
     16366 WT1      5273     TIP3     OH2      OT      -0.834000       15.9994           0
     16367 WT1      5273     TIP3     H1       HT       0.417000        1.0080           0
     16368 WT1      5273     TIP3     H2       HT       0.417000        1.0080           0
     16369 WT1      5274     TIP3     OH2      OT      -0.834000       15.9994           0
     16370 WT1      5274     TIP3     H1       HT       0.417000        1.0080           0
     16371 WT1      5274     TIP3     H2       HT       0.417000        1.0080           0
     16372 WT1      5275     TIP3     OH2      OT      -0.834000       15.9994           0
     16373 WT1      5275     TIP3     H1       HT       0.417000        1.0080           0
     16374 WT1      5275     TIP3     H2       HT       0.417000        1.0080           0
     16375 WT1      5276     TIP3     OH2      OT      -0.834000       15.9994           0
     16376 WT1      5276     TIP3     H1       HT       0.417000        1.0080           0
     16377 WT1      5276     TIP3     H2       HT       0.417000        1.0080           0
     16378 WT1      5277     TIP3     OH2      OT      -0.834000       15.9994           0
     16379 WT1      5277     TIP3     H1       HT       0.417000        1.0080           0
     16380 WT1      5277     TIP3     H2       HT       0.417000        1.0080           0
     16381 WT1      5278     TIP3     OH2      OT      -0.834000       15.9994           0
     16382 WT1      5278     TIP3     H1       HT       0.417000        1.0080           0
     16383 WT1      5278     TIP3     H2       HT       0.417000        1.0080           0
     16384 WT1      5279     TIP3     OH2      OT      -0.834000       15.9994           0
     16385 WT1      5279     TIP3     H1       HT       0.417000        1.0080           0
     16386 WT1      5279     TIP3     H2       HT       0.417000        1.0080           0
     16387 WT1      5280     TIP3     OH2      OT      -0.834000       15.9994           0
     16388 WT1      5280     TIP3     H1       HT       0.417000        1.0080           0
     16389 WT1      5280     TIP3     H2       HT       0.417000        1.0080           0
     16390 WT1      5281     TIP3     OH2      OT      -0.834000       15.9994           0
     16391 WT1      5281     TIP3     H1       HT       0.417000        1.0080           0
     16392 WT1      5281     TIP3     H2       HT       0.417000        1.0080           0
     16393 WT1      5282     TIP3     OH2      OT      -0.834000       15.9994           0
     16394 WT1      5282     TIP3     H1       HT       0.417000        1.0080           0
     16395 WT1      5282     TIP3     H2       HT       0.417000        1.0080           0
     16396 WT1      5283     TIP3     OH2      OT      -0.834000       15.9994           0
     16397 WT1      5283     TIP3     H1       HT       0.417000        1.0080           0
     16398 WT1      5283     TIP3     H2       HT       0.417000        1.0080           0
     16399 WT1      5284     TIP3     OH2      OT      -0.834000       15.9994           0
     16400 WT1      5284     TIP3     H1       HT       0.417000        1.0080           0
     16401 WT1      5284     TIP3     H2       HT       0.417000        1.0080           0
     16402 WT1      5285     TIP3     OH2      OT      -0.834000       15.9994           0
     16403 WT1      5285     TIP3     H1       HT       0.417000        1.0080           0
     16404 WT1      5285     TIP3     H2       HT       0.417000        1.0080           0
     16405 WT1      5286     TIP3     OH2      OT      -0.834000       15.9994           0
     16406 WT1      5286     TIP3     H1       HT       0.417000        1.0080           0
     16407 WT1      5286     TIP3     H2       HT       0.417000        1.0080           0
     16408 WT1      5287     TIP3     OH2      OT      -0.834000       15.9994           0
     16409 WT1      5287     TIP3     H1       HT       0.417000        1.0080           0
     16410 WT1      5287     TIP3     H2       HT       0.417000        1.0080           0
     16411 WT1      5288     TIP3     OH2      OT      -0.834000       15.9994           0
     16412 WT1      5288     TIP3     H1       HT       0.417000        1.0080           0
     16413 WT1      5288     TIP3     H2       HT       0.417000        1.0080           0
     16414 WT1      5289     TIP3     OH2      OT      -0.834000       15.9994           0
     16415 WT1      5289     TIP3     H1       HT       0.417000        1.0080           0
     16416 WT1      5289     TIP3     H2       HT       0.417000        1.0080           0
     16417 WT1      5290     TIP3     OH2      OT      -0.834000       15.9994           0
     16418 WT1      5290     TIP3     H1       HT       0.417000        1.0080           0
     16419 WT1      5290     TIP3     H2       HT       0.417000        1.0080           0
     16420 WT1      5291     TIP3     OH2      OT      -0.834000       15.9994           0
     16421 WT1      5291     TIP3     H1       HT       0.417000        1.0080           0
     16422 WT1      5291     TIP3     H2       HT       0.417000        1.0080           0
     16423 WT1      5292     TIP3     OH2      OT      -0.834000       15.9994           0
     16424 WT1      5292     TIP3     H1       HT       0.417000        1.0080           0
     16425 WT1      5292     TIP3     H2       HT       0.417000        1.0080           0
     16426 WT1      5293     TIP3     OH2      OT      -0.834000       15.9994           0
     16427 WT1      5293     TIP3     H1       HT       0.417000        1.0080           0
     16428 WT1      5293     TIP3     H2       HT       0.417000        1.0080           0
     16429 WT1      5294     TIP3     OH2      OT      -0.834000       15.9994           0
     16430 WT1      5294     TIP3     H1       HT       0.417000        1.0080           0
     16431 WT1      5294     TIP3     H2       HT       0.417000        1.0080           0
     16432 WT1      5295     TIP3     OH2      OT      -0.834000       15.9994           0
     16433 WT1      5295     TIP3     H1       HT       0.417000        1.0080           0
     16434 WT1      5295     TIP3     H2       HT       0.417000        1.0080           0
     16435 WT1      5296     TIP3     OH2      OT      -0.834000       15.9994           0
     16436 WT1      5296     TIP3     H1       HT       0.417000        1.0080           0
     16437 WT1      5296     TIP3     H2       HT       0.417000        1.0080           0
     16438 WT1      5297     TIP3     OH2      OT      -0.834000       15.9994           0
     16439 WT1      5297     TIP3     H1       HT       0.417000        1.0080           0
     16440 WT1      5297     TIP3     H2       HT       0.417000        1.0080           0
     16441 WT1      5298     TIP3     OH2      OT      -0.834000       15.9994           0
     16442 WT1      5298     TIP3     H1       HT       0.417000        1.0080           0
     16443 WT1      5298     TIP3     H2       HT       0.417000        1.0080           0
     16444 WT1      5299     TIP3     OH2      OT      -0.834000       15.9994           0
     16445 WT1      5299     TIP3     H1       HT       0.417000        1.0080           0
     16446 WT1      5299     TIP3     H2       HT       0.417000        1.0080           0
     16447 WT1      5300     TIP3     OH2      OT      -0.834000       15.9994           0
     16448 WT1      5300     TIP3     H1       HT       0.417000        1.0080           0
     16449 WT1      5300     TIP3     H2       HT       0.417000        1.0080           0
     16450 WT1      5301     TIP3     OH2      OT      -0.834000       15.9994           0
     16451 WT1      5301     TIP3     H1       HT       0.417000        1.0080           0
     16452 WT1      5301     TIP3     H2       HT       0.417000        1.0080           0
     16453 WT1      5302     TIP3     OH2      OT      -0.834000       15.9994           0
     16454 WT1      5302     TIP3     H1       HT       0.417000        1.0080           0
     16455 WT1      5302     TIP3     H2       HT       0.417000        1.0080           0
     16456 WT1      5303     TIP3     OH2      OT      -0.834000       15.9994           0
     16457 WT1      5303     TIP3     H1       HT       0.417000        1.0080           0
     16458 WT1      5303     TIP3     H2       HT       0.417000        1.0080           0
     16459 WT1      5304     TIP3     OH2      OT      -0.834000       15.9994           0
     16460 WT1      5304     TIP3     H1       HT       0.417000        1.0080           0
     16461 WT1      5304     TIP3     H2       HT       0.417000        1.0080           0
     16462 WT1      5305     TIP3     OH2      OT      -0.834000       15.9994           0
     16463 WT1      5305     TIP3     H1       HT       0.417000        1.0080           0
     16464 WT1      5305     TIP3     H2       HT       0.417000        1.0080           0
     16465 WT1      5306     TIP3     OH2      OT      -0.834000       15.9994           0
     16466 WT1      5306     TIP3     H1       HT       0.417000        1.0080           0
     16467 WT1      5306     TIP3     H2       HT       0.417000        1.0080           0
     16468 WT1      5307     TIP3     OH2      OT      -0.834000       15.9994           0
     16469 WT1      5307     TIP3     H1       HT       0.417000        1.0080           0
     16470 WT1      5307     TIP3     H2       HT       0.417000        1.0080           0
     16471 WT1      5308     TIP3     OH2      OT      -0.834000       15.9994           0
     16472 WT1      5308     TIP3     H1       HT       0.417000        1.0080           0
     16473 WT1      5308     TIP3     H2       HT       0.417000        1.0080           0
     16474 WT1      5309     TIP3     OH2      OT      -0.834000       15.9994           0
     16475 WT1      5309     TIP3     H1       HT       0.417000        1.0080           0
     16476 WT1      5309     TIP3     H2       HT       0.417000        1.0080           0
     16477 WT1      5310     TIP3     OH2      OT      -0.834000       15.9994           0
     16478 WT1      5310     TIP3     H1       HT       0.417000        1.0080           0
     16479 WT1      5310     TIP3     H2       HT       0.417000        1.0080           0
     16480 WT1      5311     TIP3     OH2      OT      -0.834000       15.9994           0
     16481 WT1      5311     TIP3     H1       HT       0.417000        1.0080           0
     16482 WT1      5311     TIP3     H2       HT       0.417000        1.0080           0
     16483 WT1      5312     TIP3     OH2      OT      -0.834000       15.9994           0
     16484 WT1      5312     TIP3     H1       HT       0.417000        1.0080           0
     16485 WT1      5312     TIP3     H2       HT       0.417000        1.0080           0
     16486 WT1      5313     TIP3     OH2      OT      -0.834000       15.9994           0
     16487 WT1      5313     TIP3     H1       HT       0.417000        1.0080           0
     16488 WT1      5313     TIP3     H2       HT       0.417000        1.0080           0
     16489 WT1      5314     TIP3     OH2      OT      -0.834000       15.9994           0
     16490 WT1      5314     TIP3     H1       HT       0.417000        1.0080           0
     16491 WT1      5314     TIP3     H2       HT       0.417000        1.0080           0
     16492 WT1      5315     TIP3     OH2      OT      -0.834000       15.9994           0
     16493 WT1      5315     TIP3     H1       HT       0.417000        1.0080           0
     16494 WT1      5315     TIP3     H2       HT       0.417000        1.0080           0
     16495 WT1      5316     TIP3     OH2      OT      -0.834000       15.9994           0
     16496 WT1      5316     TIP3     H1       HT       0.417000        1.0080           0
     16497 WT1      5316     TIP3     H2       HT       0.417000        1.0080           0
     16498 WT1      5317     TIP3     OH2      OT      -0.834000       15.9994           0
     16499 WT1      5317     TIP3     H1       HT       0.417000        1.0080           0
     16500 WT1      5317     TIP3     H2       HT       0.417000        1.0080           0
     16501 WT1      5318     TIP3     OH2      OT      -0.834000       15.9994           0
     16502 WT1      5318     TIP3     H1       HT       0.417000        1.0080           0
     16503 WT1      5318     TIP3     H2       HT       0.417000        1.0080           0
     16504 WT1      5319     TIP3     OH2      OT      -0.834000       15.9994           0
     16505 WT1      5319     TIP3     H1       HT       0.417000        1.0080           0
     16506 WT1      5319     TIP3     H2       HT       0.417000        1.0080           0
     16507 WT1      5320     TIP3     OH2      OT      -0.834000       15.9994           0
     16508 WT1      5320     TIP3     H1       HT       0.417000        1.0080           0
     16509 WT1      5320     TIP3     H2       HT       0.417000        1.0080           0
     16510 WT1      5321     TIP3     OH2      OT      -0.834000       15.9994           0
     16511 WT1      5321     TIP3     H1       HT       0.417000        1.0080           0
     16512 WT1      5321     TIP3     H2       HT       0.417000        1.0080           0
     16513 WT1      5322     TIP3     OH2      OT      -0.834000       15.9994           0
     16514 WT1      5322     TIP3     H1       HT       0.417000        1.0080           0
     16515 WT1      5322     TIP3     H2       HT       0.417000        1.0080           0
     16516 WT1      5323     TIP3     OH2      OT      -0.834000       15.9994           0
     16517 WT1      5323     TIP3     H1       HT       0.417000        1.0080           0
     16518 WT1      5323     TIP3     H2       HT       0.417000        1.0080           0
     16519 WT1      5324     TIP3     OH2      OT      -0.834000       15.9994           0
     16520 WT1      5324     TIP3     H1       HT       0.417000        1.0080           0
     16521 WT1      5324     TIP3     H2       HT       0.417000        1.0080           0
     16522 WT1      5325     TIP3     OH2      OT      -0.834000       15.9994           0
     16523 WT1      5325     TIP3     H1       HT       0.417000        1.0080           0
     16524 WT1      5325     TIP3     H2       HT       0.417000        1.0080           0
     16525 WT1      5326     TIP3     OH2      OT      -0.834000       15.9994           0
     16526 WT1      5326     TIP3     H1       HT       0.417000        1.0080           0
     16527 WT1      5326     TIP3     H2       HT       0.417000        1.0080           0
     16528 WT1      5327     TIP3     OH2      OT      -0.834000       15.9994           0
     16529 WT1      5327     TIP3     H1       HT       0.417000        1.0080           0
     16530 WT1      5327     TIP3     H2       HT       0.417000        1.0080           0
     16531 WT1      5328     TIP3     OH2      OT      -0.834000       15.9994           0
     16532 WT1      5328     TIP3     H1       HT       0.417000        1.0080           0
     16533 WT1      5328     TIP3     H2       HT       0.417000        1.0080           0
     16534 WT1      5329     TIP3     OH2      OT      -0.834000       15.9994           0
     16535 WT1      5329     TIP3     H1       HT       0.417000        1.0080           0
     16536 WT1      5329     TIP3     H2       HT       0.417000        1.0080           0
     16537 WT1      5330     TIP3     OH2      OT      -0.834000       15.9994           0
     16538 WT1      5330     TIP3     H1       HT       0.417000        1.0080           0
     16539 WT1      5330     TIP3     H2       HT       0.417000        1.0080           0
     16540 WT1      5331     TIP3     OH2      OT      -0.834000       15.9994           0
     16541 WT1      5331     TIP3     H1       HT       0.417000        1.0080           0
     16542 WT1      5331     TIP3     H2       HT       0.417000        1.0080           0
     16543 WT1      5333     TIP3     OH2      OT      -0.834000       15.9994           0
     16544 WT1      5333     TIP3     H1       HT       0.417000        1.0080           0
     16545 WT1      5333     TIP3     H2       HT       0.417000        1.0080           0
     16546 WT1      5334     TIP3     OH2      OT      -0.834000       15.9994           0
     16547 WT1      5334     TIP3     H1       HT       0.417000        1.0080           0
     16548 WT1      5334     TIP3     H2       HT       0.417000        1.0080           0
     16549 WT1      5335     TIP3     OH2      OT      -0.834000       15.9994           0
     16550 WT1      5335     TIP3     H1       HT       0.417000        1.0080           0
     16551 WT1      5335     TIP3     H2       HT       0.417000        1.0080           0
     16552 WT1      5336     TIP3     OH2      OT      -0.834000       15.9994           0
     16553 WT1      5336     TIP3     H1       HT       0.417000        1.0080           0
     16554 WT1      5336     TIP3     H2       HT       0.417000        1.0080           0
     16555 WT1      5337     TIP3     OH2      OT      -0.834000       15.9994           0
     16556 WT1      5337     TIP3     H1       HT       0.417000        1.0080           0
     16557 WT1      5337     TIP3     H2       HT       0.417000        1.0080           0
     16558 WT1      5338     TIP3     OH2      OT      -0.834000       15.9994           0
     16559 WT1      5338     TIP3     H1       HT       0.417000        1.0080           0
     16560 WT1      5338     TIP3     H2       HT       0.417000        1.0080           0
     16561 WT1      5339     TIP3     OH2      OT      -0.834000       15.9994           0
     16562 WT1      5339     TIP3     H1       HT       0.417000        1.0080           0
     16563 WT1      5339     TIP3     H2       HT       0.417000        1.0080           0
     16564 WT1      5340     TIP3     OH2      OT      -0.834000       15.9994           0
     16565 WT1      5340     TIP3     H1       HT       0.417000        1.0080           0
     16566 WT1      5340     TIP3     H2       HT       0.417000        1.0080           0
     16567 WT1      5341     TIP3     OH2      OT      -0.834000       15.9994           0
     16568 WT1      5341     TIP3     H1       HT       0.417000        1.0080           0
     16569 WT1      5341     TIP3     H2       HT       0.417000        1.0080           0
     16570 WT1      5342     TIP3     OH2      OT      -0.834000       15.9994           0
     16571 WT1      5342     TIP3     H1       HT       0.417000        1.0080           0
     16572 WT1      5342     TIP3     H2       HT       0.417000        1.0080           0
     16573 WT1      5343     TIP3     OH2      OT      -0.834000       15.9994           0
     16574 WT1      5343     TIP3     H1       HT       0.417000        1.0080           0
     16575 WT1      5343     TIP3     H2       HT       0.417000        1.0080           0
     16576 WT1      5344     TIP3     OH2      OT      -0.834000       15.9994           0
     16577 WT1      5344     TIP3     H1       HT       0.417000        1.0080           0
     16578 WT1      5344     TIP3     H2       HT       0.417000        1.0080           0
     16579 WT1      5345     TIP3     OH2      OT      -0.834000       15.9994           0
     16580 WT1      5345     TIP3     H1       HT       0.417000        1.0080           0
     16581 WT1      5345     TIP3     H2       HT       0.417000        1.0080           0
     16582 WT1      5346     TIP3     OH2      OT      -0.834000       15.9994           0
     16583 WT1      5346     TIP3     H1       HT       0.417000        1.0080           0
     16584 WT1      5346     TIP3     H2       HT       0.417000        1.0080           0
     16585 WT1      5347     TIP3     OH2      OT      -0.834000       15.9994           0
     16586 WT1      5347     TIP3     H1       HT       0.417000        1.0080           0
     16587 WT1      5347     TIP3     H2       HT       0.417000        1.0080           0
     16588 WT1      5348     TIP3     OH2      OT      -0.834000       15.9994           0
     16589 WT1      5348     TIP3     H1       HT       0.417000        1.0080           0
     16590 WT1      5348     TIP3     H2       HT       0.417000        1.0080           0
     16591 WT1      5349     TIP3     OH2      OT      -0.834000       15.9994           0
     16592 WT1      5349     TIP3     H1       HT       0.417000        1.0080           0
     16593 WT1      5349     TIP3     H2       HT       0.417000        1.0080           0
     16594 WT1      5350     TIP3     OH2      OT      -0.834000       15.9994           0
     16595 WT1      5350     TIP3     H1       HT       0.417000        1.0080           0
     16596 WT1      5350     TIP3     H2       HT       0.417000        1.0080           0
     16597 WT1      5351     TIP3     OH2      OT      -0.834000       15.9994           0
     16598 WT1      5351     TIP3     H1       HT       0.417000        1.0080           0
     16599 WT1      5351     TIP3     H2       HT       0.417000        1.0080           0
     16600 WT1      5352     TIP3     OH2      OT      -0.834000       15.9994           0
     16601 WT1      5352     TIP3     H1       HT       0.417000        1.0080           0
     16602 WT1      5352     TIP3     H2       HT       0.417000        1.0080           0
     16603 WT1      5353     TIP3     OH2      OT      -0.834000       15.9994           0
     16604 WT1      5353     TIP3     H1       HT       0.417000        1.0080           0
     16605 WT1      5353     TIP3     H2       HT       0.417000        1.0080           0
     16606 WT1      5354     TIP3     OH2      OT      -0.834000       15.9994           0
     16607 WT1      5354     TIP3     H1       HT       0.417000        1.0080           0
     16608 WT1      5354     TIP3     H2       HT       0.417000        1.0080           0
     16609 WT1      5355     TIP3     OH2      OT      -0.834000       15.9994           0
     16610 WT1      5355     TIP3     H1       HT       0.417000        1.0080           0
     16611 WT1      5355     TIP3     H2       HT       0.417000        1.0080           0
     16612 WT1      5356     TIP3     OH2      OT      -0.834000       15.9994           0
     16613 WT1      5356     TIP3     H1       HT       0.417000        1.0080           0
     16614 WT1      5356     TIP3     H2       HT       0.417000        1.0080           0
     16615 WT1      5357     TIP3     OH2      OT      -0.834000       15.9994           0
     16616 WT1      5357     TIP3     H1       HT       0.417000        1.0080           0
     16617 WT1      5357     TIP3     H2       HT       0.417000        1.0080           0
     16618 WT1      5358     TIP3     OH2      OT      -0.834000       15.9994           0
     16619 WT1      5358     TIP3     H1       HT       0.417000        1.0080           0
     16620 WT1      5358     TIP3     H2       HT       0.417000        1.0080           0
     16621 WT1      5359     TIP3     OH2      OT      -0.834000       15.9994           0
     16622 WT1      5359     TIP3     H1       HT       0.417000        1.0080           0
     16623 WT1      5359     TIP3     H2       HT       0.417000        1.0080           0
     16624 WT1      5360     TIP3     OH2      OT      -0.834000       15.9994           0
     16625 WT1      5360     TIP3     H1       HT       0.417000        1.0080           0
     16626 WT1      5360     TIP3     H2       HT       0.417000        1.0080           0
     16627 WT1      5361     TIP3     OH2      OT      -0.834000       15.9994           0
     16628 WT1      5361     TIP3     H1       HT       0.417000        1.0080           0
     16629 WT1      5361     TIP3     H2       HT       0.417000        1.0080           0
     16630 WT1      5362     TIP3     OH2      OT      -0.834000       15.9994           0
     16631 WT1      5362     TIP3     H1       HT       0.417000        1.0080           0
     16632 WT1      5362     TIP3     H2       HT       0.417000        1.0080           0
     16633 WT1      5364     TIP3     OH2      OT      -0.834000       15.9994           0
     16634 WT1      5364     TIP3     H1       HT       0.417000        1.0080           0
     16635 WT1      5364     TIP3     H2       HT       0.417000        1.0080           0
     16636 WT1      5365     TIP3     OH2      OT      -0.834000       15.9994           0
     16637 WT1      5365     TIP3     H1       HT       0.417000        1.0080           0
     16638 WT1      5365     TIP3     H2       HT       0.417000        1.0080           0
     16639 WT1      5366     TIP3     OH2      OT      -0.834000       15.9994           0
     16640 WT1      5366     TIP3     H1       HT       0.417000        1.0080           0
     16641 WT1      5366     TIP3     H2       HT       0.417000        1.0080           0
     16642 WT1      5367     TIP3     OH2      OT      -0.834000       15.9994           0
     16643 WT1      5367     TIP3     H1       HT       0.417000        1.0080           0
     16644 WT1      5367     TIP3     H2       HT       0.417000        1.0080           0
     16645 WT1      5368     TIP3     OH2      OT      -0.834000       15.9994           0
     16646 WT1      5368     TIP3     H1       HT       0.417000        1.0080           0
     16647 WT1      5368     TIP3     H2       HT       0.417000        1.0080           0
     16648 WT1      5369     TIP3     OH2      OT      -0.834000       15.9994           0
     16649 WT1      5369     TIP3     H1       HT       0.417000        1.0080           0
     16650 WT1      5369     TIP3     H2       HT       0.417000        1.0080           0
     16651 WT1      5370     TIP3     OH2      OT      -0.834000       15.9994           0
     16652 WT1      5370     TIP3     H1       HT       0.417000        1.0080           0
     16653 WT1      5370     TIP3     H2       HT       0.417000        1.0080           0
     16654 WT1      5371     TIP3     OH2      OT      -0.834000       15.9994           0
     16655 WT1      5371     TIP3     H1       HT       0.417000        1.0080           0
     16656 WT1      5371     TIP3     H2       HT       0.417000        1.0080           0
     16657 WT1      5372     TIP3     OH2      OT      -0.834000       15.9994           0
     16658 WT1      5372     TIP3     H1       HT       0.417000        1.0080           0
     16659 WT1      5372     TIP3     H2       HT       0.417000        1.0080           0
     16660 WT1      5373     TIP3     OH2      OT      -0.834000       15.9994           0
     16661 WT1      5373     TIP3     H1       HT       0.417000        1.0080           0
     16662 WT1      5373     TIP3     H2       HT       0.417000        1.0080           0
     16663 WT1      5374     TIP3     OH2      OT      -0.834000       15.9994           0
     16664 WT1      5374     TIP3     H1       HT       0.417000        1.0080           0
     16665 WT1      5374     TIP3     H2       HT       0.417000        1.0080           0
     16666 WT1      5375     TIP3     OH2      OT      -0.834000       15.9994           0
     16667 WT1      5375     TIP3     H1       HT       0.417000        1.0080           0
     16668 WT1      5375     TIP3     H2       HT       0.417000        1.0080           0
     16669 WT1      5376     TIP3     OH2      OT      -0.834000       15.9994           0
     16670 WT1      5376     TIP3     H1       HT       0.417000        1.0080           0
     16671 WT1      5376     TIP3     H2       HT       0.417000        1.0080           0
     16672 WT1      5377     TIP3     OH2      OT      -0.834000       15.9994           0
     16673 WT1      5377     TIP3     H1       HT       0.417000        1.0080           0
     16674 WT1      5377     TIP3     H2       HT       0.417000        1.0080           0
     16675 WT1      5378     TIP3     OH2      OT      -0.834000       15.9994           0
     16676 WT1      5378     TIP3     H1       HT       0.417000        1.0080           0
     16677 WT1      5378     TIP3     H2       HT       0.417000        1.0080           0
     16678 WT1      5379     TIP3     OH2      OT      -0.834000       15.9994           0
     16679 WT1      5379     TIP3     H1       HT       0.417000        1.0080           0
     16680 WT1      5379     TIP3     H2       HT       0.417000        1.0080           0
     16681 WT1      5380     TIP3     OH2      OT      -0.834000       15.9994           0
     16682 WT1      5380     TIP3     H1       HT       0.417000        1.0080           0
     16683 WT1      5380     TIP3     H2       HT       0.417000        1.0080           0
     16684 WT1      5381     TIP3     OH2      OT      -0.834000       15.9994           0
     16685 WT1      5381     TIP3     H1       HT       0.417000        1.0080           0
     16686 WT1      5381     TIP3     H2       HT       0.417000        1.0080           0
     16687 WT1      5382     TIP3     OH2      OT      -0.834000       15.9994           0
     16688 WT1      5382     TIP3     H1       HT       0.417000        1.0080           0
     16689 WT1      5382     TIP3     H2       HT       0.417000        1.0080           0
     16690 WT1      5383     TIP3     OH2      OT      -0.834000       15.9994           0
     16691 WT1      5383     TIP3     H1       HT       0.417000        1.0080           0
     16692 WT1      5383     TIP3     H2       HT       0.417000        1.0080           0
     16693 WT1      5384     TIP3     OH2      OT      -0.834000       15.9994           0
     16694 WT1      5384     TIP3     H1       HT       0.417000        1.0080           0
     16695 WT1      5384     TIP3     H2       HT       0.417000        1.0080           0
     16696 WT1      5385     TIP3     OH2      OT      -0.834000       15.9994           0
     16697 WT1      5385     TIP3     H1       HT       0.417000        1.0080           0
     16698 WT1      5385     TIP3     H2       HT       0.417000        1.0080           0
     16699 WT1      5386     TIP3     OH2      OT      -0.834000       15.9994           0
     16700 WT1      5386     TIP3     H1       HT       0.417000        1.0080           0
     16701 WT1      5386     TIP3     H2       HT       0.417000        1.0080           0
     16702 WT1      5387     TIP3     OH2      OT      -0.834000       15.9994           0
     16703 WT1      5387     TIP3     H1       HT       0.417000        1.0080           0
     16704 WT1      5387     TIP3     H2       HT       0.417000        1.0080           0
     16705 WT1      5388     TIP3     OH2      OT      -0.834000       15.9994           0
     16706 WT1      5388     TIP3     H1       HT       0.417000        1.0080           0
     16707 WT1      5388     TIP3     H2       HT       0.417000        1.0080           0
     16708 WT1      5389     TIP3     OH2      OT      -0.834000       15.9994           0
     16709 WT1      5389     TIP3     H1       HT       0.417000        1.0080           0
     16710 WT1      5389     TIP3     H2       HT       0.417000        1.0080           0
     16711 WT1      5390     TIP3     OH2      OT      -0.834000       15.9994           0
     16712 WT1      5390     TIP3     H1       HT       0.417000        1.0080           0
     16713 WT1      5390     TIP3     H2       HT       0.417000        1.0080           0
     16714 WT1      5391     TIP3     OH2      OT      -0.834000       15.9994           0
     16715 WT1      5391     TIP3     H1       HT       0.417000        1.0080           0
     16716 WT1      5391     TIP3     H2       HT       0.417000        1.0080           0
     16717 WT1      5392     TIP3     OH2      OT      -0.834000       15.9994           0
     16718 WT1      5392     TIP3     H1       HT       0.417000        1.0080           0
     16719 WT1      5392     TIP3     H2       HT       0.417000        1.0080           0
     16720 WT1      5393     TIP3     OH2      OT      -0.834000       15.9994           0
     16721 WT1      5393     TIP3     H1       HT       0.417000        1.0080           0
     16722 WT1      5393     TIP3     H2       HT       0.417000        1.0080           0
     16723 WT1      5394     TIP3     OH2      OT      -0.834000       15.9994           0
     16724 WT1      5394     TIP3     H1       HT       0.417000        1.0080           0
     16725 WT1      5394     TIP3     H2       HT       0.417000        1.0080           0
     16726 WT1      5395     TIP3     OH2      OT      -0.834000       15.9994           0
     16727 WT1      5395     TIP3     H1       HT       0.417000        1.0080           0
     16728 WT1      5395     TIP3     H2       HT       0.417000        1.0080           0
     16729 WT1      5396     TIP3     OH2      OT      -0.834000       15.9994           0
     16730 WT1      5396     TIP3     H1       HT       0.417000        1.0080           0
     16731 WT1      5396     TIP3     H2       HT       0.417000        1.0080           0
     16732 WT1      5397     TIP3     OH2      OT      -0.834000       15.9994           0
     16733 WT1      5397     TIP3     H1       HT       0.417000        1.0080           0
     16734 WT1      5397     TIP3     H2       HT       0.417000        1.0080           0
     16735 WT1      5398     TIP3     OH2      OT      -0.834000       15.9994           0
     16736 WT1      5398     TIP3     H1       HT       0.417000        1.0080           0
     16737 WT1      5398     TIP3     H2       HT       0.417000        1.0080           0
     16738 WT1      5399     TIP3     OH2      OT      -0.834000       15.9994           0
     16739 WT1      5399     TIP3     H1       HT       0.417000        1.0080           0
     16740 WT1      5399     TIP3     H2       HT       0.417000        1.0080           0
     16741 WT1      5400     TIP3     OH2      OT      -0.834000       15.9994           0
     16742 WT1      5400     TIP3     H1       HT       0.417000        1.0080           0
     16743 WT1      5400     TIP3     H2       HT       0.417000        1.0080           0
     16744 WT1      5401     TIP3     OH2      OT      -0.834000       15.9994           0
     16745 WT1      5401     TIP3     H1       HT       0.417000        1.0080           0
     16746 WT1      5401     TIP3     H2       HT       0.417000        1.0080           0
     16747 WT1      5402     TIP3     OH2      OT      -0.834000       15.9994           0
     16748 WT1      5402     TIP3     H1       HT       0.417000        1.0080           0
     16749 WT1      5402     TIP3     H2       HT       0.417000        1.0080           0
     16750 WT1      5403     TIP3     OH2      OT      -0.834000       15.9994           0
     16751 WT1      5403     TIP3     H1       HT       0.417000        1.0080           0
     16752 WT1      5403     TIP3     H2       HT       0.417000        1.0080           0
     16753 WT1      5404     TIP3     OH2      OT      -0.834000       15.9994           0
     16754 WT1      5404     TIP3     H1       HT       0.417000        1.0080           0
     16755 WT1      5404     TIP3     H2       HT       0.417000        1.0080           0
     16756 WT1      5405     TIP3     OH2      OT      -0.834000       15.9994           0
     16757 WT1      5405     TIP3     H1       HT       0.417000        1.0080           0
     16758 WT1      5405     TIP3     H2       HT       0.417000        1.0080           0
     16759 WT1      5406     TIP3     OH2      OT      -0.834000       15.9994           0
     16760 WT1      5406     TIP3     H1       HT       0.417000        1.0080           0
     16761 WT1      5406     TIP3     H2       HT       0.417000        1.0080           0
     16762 WT1      5407     TIP3     OH2      OT      -0.834000       15.9994           0
     16763 WT1      5407     TIP3     H1       HT       0.417000        1.0080           0
     16764 WT1      5407     TIP3     H2       HT       0.417000        1.0080           0
     16765 WT1      5408     TIP3     OH2      OT      -0.834000       15.9994           0
     16766 WT1      5408     TIP3     H1       HT       0.417000        1.0080           0
     16767 WT1      5408     TIP3     H2       HT       0.417000        1.0080           0
     16768 WT1      5409     TIP3     OH2      OT      -0.834000       15.9994           0
     16769 WT1      5409     TIP3     H1       HT       0.417000        1.0080           0
     16770 WT1      5409     TIP3     H2       HT       0.417000        1.0080           0
     16771 WT1      5410     TIP3     OH2      OT      -0.834000       15.9994           0
     16772 WT1      5410     TIP3     H1       HT       0.417000        1.0080           0
     16773 WT1      5410     TIP3     H2       HT       0.417000        1.0080           0
     16774 WT1      5411     TIP3     OH2      OT      -0.834000       15.9994           0
     16775 WT1      5411     TIP3     H1       HT       0.417000        1.0080           0
     16776 WT1      5411     TIP3     H2       HT       0.417000        1.0080           0
     16777 WT1      5412     TIP3     OH2      OT      -0.834000       15.9994           0
     16778 WT1      5412     TIP3     H1       HT       0.417000        1.0080           0
     16779 WT1      5412     TIP3     H2       HT       0.417000        1.0080           0
     16780 WT1      5413     TIP3     OH2      OT      -0.834000       15.9994           0
     16781 WT1      5413     TIP3     H1       HT       0.417000        1.0080           0
     16782 WT1      5413     TIP3     H2       HT       0.417000        1.0080           0
     16783 WT1      5414     TIP3     OH2      OT      -0.834000       15.9994           0
     16784 WT1      5414     TIP3     H1       HT       0.417000        1.0080           0
     16785 WT1      5414     TIP3     H2       HT       0.417000        1.0080           0
     16786 WT1      5415     TIP3     OH2      OT      -0.834000       15.9994           0
     16787 WT1      5415     TIP3     H1       HT       0.417000        1.0080           0
     16788 WT1      5415     TIP3     H2       HT       0.417000        1.0080           0
     16789 WT1      5416     TIP3     OH2      OT      -0.834000       15.9994           0
     16790 WT1      5416     TIP3     H1       HT       0.417000        1.0080           0
     16791 WT1      5416     TIP3     H2       HT       0.417000        1.0080           0
     16792 WT1      5417     TIP3     OH2      OT      -0.834000       15.9994           0
     16793 WT1      5417     TIP3     H1       HT       0.417000        1.0080           0
     16794 WT1      5417     TIP3     H2       HT       0.417000        1.0080           0
     16795 WT1      5418     TIP3     OH2      OT      -0.834000       15.9994           0
     16796 WT1      5418     TIP3     H1       HT       0.417000        1.0080           0
     16797 WT1      5418     TIP3     H2       HT       0.417000        1.0080           0
     16798 WT1      5419     TIP3     OH2      OT      -0.834000       15.9994           0
     16799 WT1      5419     TIP3     H1       HT       0.417000        1.0080           0
     16800 WT1      5419     TIP3     H2       HT       0.417000        1.0080           0
     16801 WT1      5420     TIP3     OH2      OT      -0.834000       15.9994           0
     16802 WT1      5420     TIP3     H1       HT       0.417000        1.0080           0
     16803 WT1      5420     TIP3     H2       HT       0.417000        1.0080           0
     16804 WT1      5421     TIP3     OH2      OT      -0.834000       15.9994           0
     16805 WT1      5421     TIP3     H1       HT       0.417000        1.0080           0
     16806 WT1      5421     TIP3     H2       HT       0.417000        1.0080           0
     16807 WT1      5422     TIP3     OH2      OT      -0.834000       15.9994           0
     16808 WT1      5422     TIP3     H1       HT       0.417000        1.0080           0
     16809 WT1      5422     TIP3     H2       HT       0.417000        1.0080           0
     16810 WT1      5423     TIP3     OH2      OT      -0.834000       15.9994           0
     16811 WT1      5423     TIP3     H1       HT       0.417000        1.0080           0
     16812 WT1      5423     TIP3     H2       HT       0.417000        1.0080           0
     16813 WT1      5424     TIP3     OH2      OT      -0.834000       15.9994           0
     16814 WT1      5424     TIP3     H1       HT       0.417000        1.0080           0
     16815 WT1      5424     TIP3     H2       HT       0.417000        1.0080           0
     16816 WT1      5425     TIP3     OH2      OT      -0.834000       15.9994           0
     16817 WT1      5425     TIP3     H1       HT       0.417000        1.0080           0
     16818 WT1      5425     TIP3     H2       HT       0.417000        1.0080           0
     16819 WT1      5426     TIP3     OH2      OT      -0.834000       15.9994           0
     16820 WT1      5426     TIP3     H1       HT       0.417000        1.0080           0
     16821 WT1      5426     TIP3     H2       HT       0.417000        1.0080           0
     16822 WT1      5427     TIP3     OH2      OT      -0.834000       15.9994           0
     16823 WT1      5427     TIP3     H1       HT       0.417000        1.0080           0
     16824 WT1      5427     TIP3     H2       HT       0.417000        1.0080           0
     16825 WT1      5428     TIP3     OH2      OT      -0.834000       15.9994           0
     16826 WT1      5428     TIP3     H1       HT       0.417000        1.0080           0
     16827 WT1      5428     TIP3     H2       HT       0.417000        1.0080           0
     16828 WT1      5429     TIP3     OH2      OT      -0.834000       15.9994           0
     16829 WT1      5429     TIP3     H1       HT       0.417000        1.0080           0
     16830 WT1      5429     TIP3     H2       HT       0.417000        1.0080           0
     16831 WT1      5430     TIP3     OH2      OT      -0.834000       15.9994           0
     16832 WT1      5430     TIP3     H1       HT       0.417000        1.0080           0
     16833 WT1      5430     TIP3     H2       HT       0.417000        1.0080           0
     16834 WT1      5431     TIP3     OH2      OT      -0.834000       15.9994           0
     16835 WT1      5431     TIP3     H1       HT       0.417000        1.0080           0
     16836 WT1      5431     TIP3     H2       HT       0.417000        1.0080           0
     16837 WT1      5432     TIP3     OH2      OT      -0.834000       15.9994           0
     16838 WT1      5432     TIP3     H1       HT       0.417000        1.0080           0
     16839 WT1      5432     TIP3     H2       HT       0.417000        1.0080           0
     16840 WT1      5433     TIP3     OH2      OT      -0.834000       15.9994           0
     16841 WT1      5433     TIP3     H1       HT       0.417000        1.0080           0
     16842 WT1      5433     TIP3     H2       HT       0.417000        1.0080           0
     16843 WT1      5434     TIP3     OH2      OT      -0.834000       15.9994           0
     16844 WT1      5434     TIP3     H1       HT       0.417000        1.0080           0
     16845 WT1      5434     TIP3     H2       HT       0.417000        1.0080           0
     16846 WT1      5435     TIP3     OH2      OT      -0.834000       15.9994           0
     16847 WT1      5435     TIP3     H1       HT       0.417000        1.0080           0
     16848 WT1      5435     TIP3     H2       HT       0.417000        1.0080           0
     16849 WT1      5436     TIP3     OH2      OT      -0.834000       15.9994           0
     16850 WT1      5436     TIP3     H1       HT       0.417000        1.0080           0
     16851 WT1      5436     TIP3     H2       HT       0.417000        1.0080           0
     16852 WT1      5437     TIP3     OH2      OT      -0.834000       15.9994           0
     16853 WT1      5437     TIP3     H1       HT       0.417000        1.0080           0
     16854 WT1      5437     TIP3     H2       HT       0.417000        1.0080           0
     16855 WT1      5438     TIP3     OH2      OT      -0.834000       15.9994           0
     16856 WT1      5438     TIP3     H1       HT       0.417000        1.0080           0
     16857 WT1      5438     TIP3     H2       HT       0.417000        1.0080           0
     16858 WT1      5439     TIP3     OH2      OT      -0.834000       15.9994           0
     16859 WT1      5439     TIP3     H1       HT       0.417000        1.0080           0
     16860 WT1      5439     TIP3     H2       HT       0.417000        1.0080           0
     16861 WT1      5440     TIP3     OH2      OT      -0.834000       15.9994           0
     16862 WT1      5440     TIP3     H1       HT       0.417000        1.0080           0
     16863 WT1      5440     TIP3     H2       HT       0.417000        1.0080           0
     16864 WT1      5441     TIP3     OH2      OT      -0.834000       15.9994           0
     16865 WT1      5441     TIP3     H1       HT       0.417000        1.0080           0
     16866 WT1      5441     TIP3     H2       HT       0.417000        1.0080           0
     16867 WT1      5442     TIP3     OH2      OT      -0.834000       15.9994           0
     16868 WT1      5442     TIP3     H1       HT       0.417000        1.0080           0
     16869 WT1      5442     TIP3     H2       HT       0.417000        1.0080           0
     16870 WT1      5443     TIP3     OH2      OT      -0.834000       15.9994           0
     16871 WT1      5443     TIP3     H1       HT       0.417000        1.0080           0
     16872 WT1      5443     TIP3     H2       HT       0.417000        1.0080           0
     16873 WT1      5444     TIP3     OH2      OT      -0.834000       15.9994           0
     16874 WT1      5444     TIP3     H1       HT       0.417000        1.0080           0
     16875 WT1      5444     TIP3     H2       HT       0.417000        1.0080           0
     16876 WT1      5445     TIP3     OH2      OT      -0.834000       15.9994           0
     16877 WT1      5445     TIP3     H1       HT       0.417000        1.0080           0
     16878 WT1      5445     TIP3     H2       HT       0.417000        1.0080           0
     16879 WT1      5446     TIP3     OH2      OT      -0.834000       15.9994           0
     16880 WT1      5446     TIP3     H1       HT       0.417000        1.0080           0
     16881 WT1      5446     TIP3     H2       HT       0.417000        1.0080           0
     16882 WT1      5447     TIP3     OH2      OT      -0.834000       15.9994           0
     16883 WT1      5447     TIP3     H1       HT       0.417000        1.0080           0
     16884 WT1      5447     TIP3     H2       HT       0.417000        1.0080           0
     16885 WT1      5448     TIP3     OH2      OT      -0.834000       15.9994           0
     16886 WT1      5448     TIP3     H1       HT       0.417000        1.0080           0
     16887 WT1      5448     TIP3     H2       HT       0.417000        1.0080           0
     16888 WT1      5449     TIP3     OH2      OT      -0.834000       15.9994           0
     16889 WT1      5449     TIP3     H1       HT       0.417000        1.0080           0
     16890 WT1      5449     TIP3     H2       HT       0.417000        1.0080           0
     16891 WT1      5450     TIP3     OH2      OT      -0.834000       15.9994           0
     16892 WT1      5450     TIP3     H1       HT       0.417000        1.0080           0
     16893 WT1      5450     TIP3     H2       HT       0.417000        1.0080           0
     16894 WT1      5451     TIP3     OH2      OT      -0.834000       15.9994           0
     16895 WT1      5451     TIP3     H1       HT       0.417000        1.0080           0
     16896 WT1      5451     TIP3     H2       HT       0.417000        1.0080           0
     16897 WT1      5452     TIP3     OH2      OT      -0.834000       15.9994           0
     16898 WT1      5452     TIP3     H1       HT       0.417000        1.0080           0
     16899 WT1      5452     TIP3     H2       HT       0.417000        1.0080           0
     16900 WT1      5453     TIP3     OH2      OT      -0.834000       15.9994           0
     16901 WT1      5453     TIP3     H1       HT       0.417000        1.0080           0
     16902 WT1      5453     TIP3     H2       HT       0.417000        1.0080           0
     16903 WT1      5454     TIP3     OH2      OT      -0.834000       15.9994           0
     16904 WT1      5454     TIP3     H1       HT       0.417000        1.0080           0
     16905 WT1      5454     TIP3     H2       HT       0.417000        1.0080           0
     16906 WT1      5455     TIP3     OH2      OT      -0.834000       15.9994           0
     16907 WT1      5455     TIP3     H1       HT       0.417000        1.0080           0
     16908 WT1      5455     TIP3     H2       HT       0.417000        1.0080           0
     16909 WT1      5456     TIP3     OH2      OT      -0.834000       15.9994           0
     16910 WT1      5456     TIP3     H1       HT       0.417000        1.0080           0
     16911 WT1      5456     TIP3     H2       HT       0.417000        1.0080           0
     16912 WT1      5457     TIP3     OH2      OT      -0.834000       15.9994           0
     16913 WT1      5457     TIP3     H1       HT       0.417000        1.0080           0
     16914 WT1      5457     TIP3     H2       HT       0.417000        1.0080           0
     16915 WT1      5458     TIP3     OH2      OT      -0.834000       15.9994           0
     16916 WT1      5458     TIP3     H1       HT       0.417000        1.0080           0
     16917 WT1      5458     TIP3     H2       HT       0.417000        1.0080           0
     16918 WT1      5459     TIP3     OH2      OT      -0.834000       15.9994           0
     16919 WT1      5459     TIP3     H1       HT       0.417000        1.0080           0
     16920 WT1      5459     TIP3     H2       HT       0.417000        1.0080           0
     16921 WT1      5460     TIP3     OH2      OT      -0.834000       15.9994           0
     16922 WT1      5460     TIP3     H1       HT       0.417000        1.0080           0
     16923 WT1      5460     TIP3     H2       HT       0.417000        1.0080           0
     16924 WT1      5461     TIP3     OH2      OT      -0.834000       15.9994           0
     16925 WT1      5461     TIP3     H1       HT       0.417000        1.0080           0
     16926 WT1      5461     TIP3     H2       HT       0.417000        1.0080           0
     16927 WT1      5462     TIP3     OH2      OT      -0.834000       15.9994           0
     16928 WT1      5462     TIP3     H1       HT       0.417000        1.0080           0
     16929 WT1      5462     TIP3     H2       HT       0.417000        1.0080           0
     16930 WT1      5463     TIP3     OH2      OT      -0.834000       15.9994           0
     16931 WT1      5463     TIP3     H1       HT       0.417000        1.0080           0
     16932 WT1      5463     TIP3     H2       HT       0.417000        1.0080           0
     16933 WT1      5464     TIP3     OH2      OT      -0.834000       15.9994           0
     16934 WT1      5464     TIP3     H1       HT       0.417000        1.0080           0
     16935 WT1      5464     TIP3     H2       HT       0.417000        1.0080           0
     16936 WT1      5465     TIP3     OH2      OT      -0.834000       15.9994           0
     16937 WT1      5465     TIP3     H1       HT       0.417000        1.0080           0
     16938 WT1      5465     TIP3     H2       HT       0.417000        1.0080           0
     16939 WT1      5466     TIP3     OH2      OT      -0.834000       15.9994           0
     16940 WT1      5466     TIP3     H1       HT       0.417000        1.0080           0
     16941 WT1      5466     TIP3     H2       HT       0.417000        1.0080           0
     16942 WT1      5467     TIP3     OH2      OT      -0.834000       15.9994           0
     16943 WT1      5467     TIP3     H1       HT       0.417000        1.0080           0
     16944 WT1      5467     TIP3     H2       HT       0.417000        1.0080           0
     16945 WT1      5468     TIP3     OH2      OT      -0.834000       15.9994           0
     16946 WT1      5468     TIP3     H1       HT       0.417000        1.0080           0
     16947 WT1      5468     TIP3     H2       HT       0.417000        1.0080           0
     16948 WT1      5469     TIP3     OH2      OT      -0.834000       15.9994           0
     16949 WT1      5469     TIP3     H1       HT       0.417000        1.0080           0
     16950 WT1      5469     TIP3     H2       HT       0.417000        1.0080           0
     16951 WT1      5470     TIP3     OH2      OT      -0.834000       15.9994           0
     16952 WT1      5470     TIP3     H1       HT       0.417000        1.0080           0
     16953 WT1      5470     TIP3     H2       HT       0.417000        1.0080           0
     16954 WT1      5471     TIP3     OH2      OT      -0.834000       15.9994           0
     16955 WT1      5471     TIP3     H1       HT       0.417000        1.0080           0
     16956 WT1      5471     TIP3     H2       HT       0.417000        1.0080           0
     16957 WT1      5472     TIP3     OH2      OT      -0.834000       15.9994           0
     16958 WT1      5472     TIP3     H1       HT       0.417000        1.0080           0
     16959 WT1      5472     TIP3     H2       HT       0.417000        1.0080           0
     16960 WT1      5473     TIP3     OH2      OT      -0.834000       15.9994           0
     16961 WT1      5473     TIP3     H1       HT       0.417000        1.0080           0
     16962 WT1      5473     TIP3     H2       HT       0.417000        1.0080           0
     16963 WT1      5474     TIP3     OH2      OT      -0.834000       15.9994           0
     16964 WT1      5474     TIP3     H1       HT       0.417000        1.0080           0
     16965 WT1      5474     TIP3     H2       HT       0.417000        1.0080           0
     16966 WT1      5475     TIP3     OH2      OT      -0.834000       15.9994           0
     16967 WT1      5475     TIP3     H1       HT       0.417000        1.0080           0
     16968 WT1      5475     TIP3     H2       HT       0.417000        1.0080           0
     16969 WT1      5476     TIP3     OH2      OT      -0.834000       15.9994           0
     16970 WT1      5476     TIP3     H1       HT       0.417000        1.0080           0
     16971 WT1      5476     TIP3     H2       HT       0.417000        1.0080           0
     16972 WT1      5477     TIP3     OH2      OT      -0.834000       15.9994           0
     16973 WT1      5477     TIP3     H1       HT       0.417000        1.0080           0
     16974 WT1      5477     TIP3     H2       HT       0.417000        1.0080           0
     16975 WT1      5478     TIP3     OH2      OT      -0.834000       15.9994           0
     16976 WT1      5478     TIP3     H1       HT       0.417000        1.0080           0
     16977 WT1      5478     TIP3     H2       HT       0.417000        1.0080           0
     16978 WT1      5479     TIP3     OH2      OT      -0.834000       15.9994           0
     16979 WT1      5479     TIP3     H1       HT       0.417000        1.0080           0
     16980 WT1      5479     TIP3     H2       HT       0.417000        1.0080           0
     16981 WT1      5480     TIP3     OH2      OT      -0.834000       15.9994           0
     16982 WT1      5480     TIP3     H1       HT       0.417000        1.0080           0
     16983 WT1      5480     TIP3     H2       HT       0.417000        1.0080           0
     16984 WT1      5481     TIP3     OH2      OT      -0.834000       15.9994           0
     16985 WT1      5481     TIP3     H1       HT       0.417000        1.0080           0
     16986 WT1      5481     TIP3     H2       HT       0.417000        1.0080           0
     16987 WT1      5482     TIP3     OH2      OT      -0.834000       15.9994           0
     16988 WT1      5482     TIP3     H1       HT       0.417000        1.0080           0
     16989 WT1      5482     TIP3     H2       HT       0.417000        1.0080           0
     16990 WT1      5483     TIP3     OH2      OT      -0.834000       15.9994           0
     16991 WT1      5483     TIP3     H1       HT       0.417000        1.0080           0
     16992 WT1      5483     TIP3     H2       HT       0.417000        1.0080           0
     16993 WT1      5484     TIP3     OH2      OT      -0.834000       15.9994           0
     16994 WT1      5484     TIP3     H1       HT       0.417000        1.0080           0
     16995 WT1      5484     TIP3     H2       HT       0.417000        1.0080           0
     16996 WT1      5485     TIP3     OH2      OT      -0.834000       15.9994           0
     16997 WT1      5485     TIP3     H1       HT       0.417000        1.0080           0
     16998 WT1      5485     TIP3     H2       HT       0.417000        1.0080           0
     16999 WT1      5486     TIP3     OH2      OT      -0.834000       15.9994           0
     17000 WT1      5486     TIP3     H1       HT       0.417000        1.0080           0
     17001 WT1      5486     TIP3     H2       HT       0.417000        1.0080           0
     17002 WT1      5487     TIP3     OH2      OT      -0.834000       15.9994           0
     17003 WT1      5487     TIP3     H1       HT       0.417000        1.0080           0
     17004 WT1      5487     TIP3     H2       HT       0.417000        1.0080           0
     17005 WT1      5488     TIP3     OH2      OT      -0.834000       15.9994           0
     17006 WT1      5488     TIP3     H1       HT       0.417000        1.0080           0
     17007 WT1      5488     TIP3     H2       HT       0.417000        1.0080           0
     17008 WT1      5489     TIP3     OH2      OT      -0.834000       15.9994           0
     17009 WT1      5489     TIP3     H1       HT       0.417000        1.0080           0
     17010 WT1      5489     TIP3     H2       HT       0.417000        1.0080           0
     17011 WT1      5490     TIP3     OH2      OT      -0.834000       15.9994           0
     17012 WT1      5490     TIP3     H1       HT       0.417000        1.0080           0
     17013 WT1      5490     TIP3     H2       HT       0.417000        1.0080           0
     17014 WT1      5491     TIP3     OH2      OT      -0.834000       15.9994           0
     17015 WT1      5491     TIP3     H1       HT       0.417000        1.0080           0
     17016 WT1      5491     TIP3     H2       HT       0.417000        1.0080           0
     17017 WT1      5492     TIP3     OH2      OT      -0.834000       15.9994           0
     17018 WT1      5492     TIP3     H1       HT       0.417000        1.0080           0
     17019 WT1      5492     TIP3     H2       HT       0.417000        1.0080           0
     17020 WT1      5493     TIP3     OH2      OT      -0.834000       15.9994           0
     17021 WT1      5493     TIP3     H1       HT       0.417000        1.0080           0
     17022 WT1      5493     TIP3     H2       HT       0.417000        1.0080           0
     17023 WT1      5494     TIP3     OH2      OT      -0.834000       15.9994           0
     17024 WT1      5494     TIP3     H1       HT       0.417000        1.0080           0
     17025 WT1      5494     TIP3     H2       HT       0.417000        1.0080           0
     17026 WT1      5495     TIP3     OH2      OT      -0.834000       15.9994           0
     17027 WT1      5495     TIP3     H1       HT       0.417000        1.0080           0
     17028 WT1      5495     TIP3     H2       HT       0.417000        1.0080           0
     17029 WT1      5496     TIP3     OH2      OT      -0.834000       15.9994           0
     17030 WT1      5496     TIP3     H1       HT       0.417000        1.0080           0
     17031 WT1      5496     TIP3     H2       HT       0.417000        1.0080           0
     17032 WT1      5497     TIP3     OH2      OT      -0.834000       15.9994           0
     17033 WT1      5497     TIP3     H1       HT       0.417000        1.0080           0
     17034 WT1      5497     TIP3     H2       HT       0.417000        1.0080           0
     17035 WT1      5498     TIP3     OH2      OT      -0.834000       15.9994           0
     17036 WT1      5498     TIP3     H1       HT       0.417000        1.0080           0
     17037 WT1      5498     TIP3     H2       HT       0.417000        1.0080           0
     17038 WT1      5499     TIP3     OH2      OT      -0.834000       15.9994           0
     17039 WT1      5499     TIP3     H1       HT       0.417000        1.0080           0
     17040 WT1      5499     TIP3     H2       HT       0.417000        1.0080           0
     17041 WT1      5500     TIP3     OH2      OT      -0.834000       15.9994           0
     17042 WT1      5500     TIP3     H1       HT       0.417000        1.0080           0
     17043 WT1      5500     TIP3     H2       HT       0.417000        1.0080           0
     17044 WT1      5501     TIP3     OH2      OT      -0.834000       15.9994           0
     17045 WT1      5501     TIP3     H1       HT       0.417000        1.0080           0
     17046 WT1      5501     TIP3     H2       HT       0.417000        1.0080           0
     17047 WT1      5502     TIP3     OH2      OT      -0.834000       15.9994           0
     17048 WT1      5502     TIP3     H1       HT       0.417000        1.0080           0
     17049 WT1      5502     TIP3     H2       HT       0.417000        1.0080           0
     17050 WT1      5503     TIP3     OH2      OT      -0.834000       15.9994           0
     17051 WT1      5503     TIP3     H1       HT       0.417000        1.0080           0
     17052 WT1      5503     TIP3     H2       HT       0.417000        1.0080           0
     17053 WT1      5504     TIP3     OH2      OT      -0.834000       15.9994           0
     17054 WT1      5504     TIP3     H1       HT       0.417000        1.0080           0
     17055 WT1      5504     TIP3     H2       HT       0.417000        1.0080           0
     17056 WT1      5505     TIP3     OH2      OT      -0.834000       15.9994           0
     17057 WT1      5505     TIP3     H1       HT       0.417000        1.0080           0
     17058 WT1      5505     TIP3     H2       HT       0.417000        1.0080           0
     17059 WT1      5506     TIP3     OH2      OT      -0.834000       15.9994           0
     17060 WT1      5506     TIP3     H1       HT       0.417000        1.0080           0
     17061 WT1      5506     TIP3     H2       HT       0.417000        1.0080           0
     17062 WT1      5507     TIP3     OH2      OT      -0.834000       15.9994           0
     17063 WT1      5507     TIP3     H1       HT       0.417000        1.0080           0
     17064 WT1      5507     TIP3     H2       HT       0.417000        1.0080           0
     17065 WT1      5508     TIP3     OH2      OT      -0.834000       15.9994           0
     17066 WT1      5508     TIP3     H1       HT       0.417000        1.0080           0
     17067 WT1      5508     TIP3     H2       HT       0.417000        1.0080           0
     17068 WT1      5509     TIP3     OH2      OT      -0.834000       15.9994           0
     17069 WT1      5509     TIP3     H1       HT       0.417000        1.0080           0
     17070 WT1      5509     TIP3     H2       HT       0.417000        1.0080           0
     17071 WT1      5510     TIP3     OH2      OT      -0.834000       15.9994           0
     17072 WT1      5510     TIP3     H1       HT       0.417000        1.0080           0
     17073 WT1      5510     TIP3     H2       HT       0.417000        1.0080           0
     17074 WT1      5511     TIP3     OH2      OT      -0.834000       15.9994           0
     17075 WT1      5511     TIP3     H1       HT       0.417000        1.0080           0
     17076 WT1      5511     TIP3     H2       HT       0.417000        1.0080           0
     17077 WT1      5512     TIP3     OH2      OT      -0.834000       15.9994           0
     17078 WT1      5512     TIP3     H1       HT       0.417000        1.0080           0
     17079 WT1      5512     TIP3     H2       HT       0.417000        1.0080           0
     17080 WT1      5513     TIP3     OH2      OT      -0.834000       15.9994           0
     17081 WT1      5513     TIP3     H1       HT       0.417000        1.0080           0
     17082 WT1      5513     TIP3     H2       HT       0.417000        1.0080           0
     17083 WT1      5514     TIP3     OH2      OT      -0.834000       15.9994           0
     17084 WT1      5514     TIP3     H1       HT       0.417000        1.0080           0
     17085 WT1      5514     TIP3     H2       HT       0.417000        1.0080           0
     17086 WT1      5515     TIP3     OH2      OT      -0.834000       15.9994           0
     17087 WT1      5515     TIP3     H1       HT       0.417000        1.0080           0
     17088 WT1      5515     TIP3     H2       HT       0.417000        1.0080           0
     17089 WT1      5516     TIP3     OH2      OT      -0.834000       15.9994           0
     17090 WT1      5516     TIP3     H1       HT       0.417000        1.0080           0
     17091 WT1      5516     TIP3     H2       HT       0.417000        1.0080           0
     17092 WT1      5517     TIP3     OH2      OT      -0.834000       15.9994           0
     17093 WT1      5517     TIP3     H1       HT       0.417000        1.0080           0
     17094 WT1      5517     TIP3     H2       HT       0.417000        1.0080           0
     17095 WT1      5518     TIP3     OH2      OT      -0.834000       15.9994           0
     17096 WT1      5518     TIP3     H1       HT       0.417000        1.0080           0
     17097 WT1      5518     TIP3     H2       HT       0.417000        1.0080           0
     17098 WT1      5519     TIP3     OH2      OT      -0.834000       15.9994           0
     17099 WT1      5519     TIP3     H1       HT       0.417000        1.0080           0
     17100 WT1      5519     TIP3     H2       HT       0.417000        1.0080           0
     17101 WT1      5520     TIP3     OH2      OT      -0.834000       15.9994           0
     17102 WT1      5520     TIP3     H1       HT       0.417000        1.0080           0
     17103 WT1      5520     TIP3     H2       HT       0.417000        1.0080           0
     17104 WT1      5521     TIP3     OH2      OT      -0.834000       15.9994           0
     17105 WT1      5521     TIP3     H1       HT       0.417000        1.0080           0
     17106 WT1      5521     TIP3     H2       HT       0.417000        1.0080           0
     17107 WT1      5522     TIP3     OH2      OT      -0.834000       15.9994           0
     17108 WT1      5522     TIP3     H1       HT       0.417000        1.0080           0
     17109 WT1      5522     TIP3     H2       HT       0.417000        1.0080           0
     17110 WT1      5523     TIP3     OH2      OT      -0.834000       15.9994           0
     17111 WT1      5523     TIP3     H1       HT       0.417000        1.0080           0
     17112 WT1      5523     TIP3     H2       HT       0.417000        1.0080           0
     17113 WT1      5524     TIP3     OH2      OT      -0.834000       15.9994           0
     17114 WT1      5524     TIP3     H1       HT       0.417000        1.0080           0
     17115 WT1      5524     TIP3     H2       HT       0.417000        1.0080           0
     17116 WT1      5525     TIP3     OH2      OT      -0.834000       15.9994           0
     17117 WT1      5525     TIP3     H1       HT       0.417000        1.0080           0
     17118 WT1      5525     TIP3     H2       HT       0.417000        1.0080           0
     17119 WT1      5526     TIP3     OH2      OT      -0.834000       15.9994           0
     17120 WT1      5526     TIP3     H1       HT       0.417000        1.0080           0
     17121 WT1      5526     TIP3     H2       HT       0.417000        1.0080           0
     17122 WT1      5527     TIP3     OH2      OT      -0.834000       15.9994           0
     17123 WT1      5527     TIP3     H1       HT       0.417000        1.0080           0
     17124 WT1      5527     TIP3     H2       HT       0.417000        1.0080           0
     17125 WT1      5528     TIP3     OH2      OT      -0.834000       15.9994           0
     17126 WT1      5528     TIP3     H1       HT       0.417000        1.0080           0
     17127 WT1      5528     TIP3     H2       HT       0.417000        1.0080           0
     17128 WT1      5529     TIP3     OH2      OT      -0.834000       15.9994           0
     17129 WT1      5529     TIP3     H1       HT       0.417000        1.0080           0
     17130 WT1      5529     TIP3     H2       HT       0.417000        1.0080           0
     17131 WT1      5530     TIP3     OH2      OT      -0.834000       15.9994           0
     17132 WT1      5530     TIP3     H1       HT       0.417000        1.0080           0
     17133 WT1      5530     TIP3     H2       HT       0.417000        1.0080           0
     17134 WT1      5531     TIP3     OH2      OT      -0.834000       15.9994           0
     17135 WT1      5531     TIP3     H1       HT       0.417000        1.0080           0
     17136 WT1      5531     TIP3     H2       HT       0.417000        1.0080           0
     17137 WT1      5532     TIP3     OH2      OT      -0.834000       15.9994           0
     17138 WT1      5532     TIP3     H1       HT       0.417000        1.0080           0
     17139 WT1      5532     TIP3     H2       HT       0.417000        1.0080           0
     17140 WT1      5533     TIP3     OH2      OT      -0.834000       15.9994           0
     17141 WT1      5533     TIP3     H1       HT       0.417000        1.0080           0
     17142 WT1      5533     TIP3     H2       HT       0.417000        1.0080           0
     17143 WT1      5534     TIP3     OH2      OT      -0.834000       15.9994           0
     17144 WT1      5534     TIP3     H1       HT       0.417000        1.0080           0
     17145 WT1      5534     TIP3     H2       HT       0.417000        1.0080           0
     17146 WT1      5535     TIP3     OH2      OT      -0.834000       15.9994           0
     17147 WT1      5535     TIP3     H1       HT       0.417000        1.0080           0
     17148 WT1      5535     TIP3     H2       HT       0.417000        1.0080           0
     17149 WT1      5536     TIP3     OH2      OT      -0.834000       15.9994           0
     17150 WT1      5536     TIP3     H1       HT       0.417000        1.0080           0
     17151 WT1      5536     TIP3     H2       HT       0.417000        1.0080           0
     17152 WT1      5537     TIP3     OH2      OT      -0.834000       15.9994           0
     17153 WT1      5537     TIP3     H1       HT       0.417000        1.0080           0
     17154 WT1      5537     TIP3     H2       HT       0.417000        1.0080           0
     17155 WT1      5538     TIP3     OH2      OT      -0.834000       15.9994           0
     17156 WT1      5538     TIP3     H1       HT       0.417000        1.0080           0
     17157 WT1      5538     TIP3     H2       HT       0.417000        1.0080           0
     17158 WT1      5539     TIP3     OH2      OT      -0.834000       15.9994           0
     17159 WT1      5539     TIP3     H1       HT       0.417000        1.0080           0
     17160 WT1      5539     TIP3     H2       HT       0.417000        1.0080           0
     17161 WT1      5540     TIP3     OH2      OT      -0.834000       15.9994           0
     17162 WT1      5540     TIP3     H1       HT       0.417000        1.0080           0
     17163 WT1      5540     TIP3     H2       HT       0.417000        1.0080           0
     17164 WT1      5541     TIP3     OH2      OT      -0.834000       15.9994           0
     17165 WT1      5541     TIP3     H1       HT       0.417000        1.0080           0
     17166 WT1      5541     TIP3     H2       HT       0.417000        1.0080           0
     17167 WT1      5542     TIP3     OH2      OT      -0.834000       15.9994           0
     17168 WT1      5542     TIP3     H1       HT       0.417000        1.0080           0
     17169 WT1      5542     TIP3     H2       HT       0.417000        1.0080           0
     17170 WT1      5543     TIP3     OH2      OT      -0.834000       15.9994           0
     17171 WT1      5543     TIP3     H1       HT       0.417000        1.0080           0
     17172 WT1      5543     TIP3     H2       HT       0.417000        1.0080           0
     17173 WT1      5544     TIP3     OH2      OT      -0.834000       15.9994           0
     17174 WT1      5544     TIP3     H1       HT       0.417000        1.0080           0
     17175 WT1      5544     TIP3     H2       HT       0.417000        1.0080           0
     17176 WT1      5545     TIP3     OH2      OT      -0.834000       15.9994           0
     17177 WT1      5545     TIP3     H1       HT       0.417000        1.0080           0
     17178 WT1      5545     TIP3     H2       HT       0.417000        1.0080           0
     17179 WT1      5546     TIP3     OH2      OT      -0.834000       15.9994           0
     17180 WT1      5546     TIP3     H1       HT       0.417000        1.0080           0
     17181 WT1      5546     TIP3     H2       HT       0.417000        1.0080           0
     17182 WT1      5547     TIP3     OH2      OT      -0.834000       15.9994           0
     17183 WT1      5547     TIP3     H1       HT       0.417000        1.0080           0
     17184 WT1      5547     TIP3     H2       HT       0.417000        1.0080           0
     17185 WT1      5548     TIP3     OH2      OT      -0.834000       15.9994           0
     17186 WT1      5548     TIP3     H1       HT       0.417000        1.0080           0
     17187 WT1      5548     TIP3     H2       HT       0.417000        1.0080           0
     17188 WT1      5549     TIP3     OH2      OT      -0.834000       15.9994           0
     17189 WT1      5549     TIP3     H1       HT       0.417000        1.0080           0
     17190 WT1      5549     TIP3     H2       HT       0.417000        1.0080           0
     17191 WT1      5550     TIP3     OH2      OT      -0.834000       15.9994           0
     17192 WT1      5550     TIP3     H1       HT       0.417000        1.0080           0
     17193 WT1      5550     TIP3     H2       HT       0.417000        1.0080           0
     17194 WT1      5551     TIP3     OH2      OT      -0.834000       15.9994           0
     17195 WT1      5551     TIP3     H1       HT       0.417000        1.0080           0
     17196 WT1      5551     TIP3     H2       HT       0.417000        1.0080           0
     17197 WT1      5552     TIP3     OH2      OT      -0.834000       15.9994           0
     17198 WT1      5552     TIP3     H1       HT       0.417000        1.0080           0
     17199 WT1      5552     TIP3     H2       HT       0.417000        1.0080           0
     17200 WT1      5553     TIP3     OH2      OT      -0.834000       15.9994           0
     17201 WT1      5553     TIP3     H1       HT       0.417000        1.0080           0
     17202 WT1      5553     TIP3     H2       HT       0.417000        1.0080           0
     17203 WT1      5554     TIP3     OH2      OT      -0.834000       15.9994           0
     17204 WT1      5554     TIP3     H1       HT       0.417000        1.0080           0
     17205 WT1      5554     TIP3     H2       HT       0.417000        1.0080           0
     17206 WT1      5555     TIP3     OH2      OT      -0.834000       15.9994           0
     17207 WT1      5555     TIP3     H1       HT       0.417000        1.0080           0
     17208 WT1      5555     TIP3     H2       HT       0.417000        1.0080           0
     17209 WT1      5556     TIP3     OH2      OT      -0.834000       15.9994           0
     17210 WT1      5556     TIP3     H1       HT       0.417000        1.0080           0
     17211 WT1      5556     TIP3     H2       HT       0.417000        1.0080           0
     17212 WT1      5557     TIP3     OH2      OT      -0.834000       15.9994           0
     17213 WT1      5557     TIP3     H1       HT       0.417000        1.0080           0
     17214 WT1      5557     TIP3     H2       HT       0.417000        1.0080           0
     17215 WT1      5558     TIP3     OH2      OT      -0.834000       15.9994           0
     17216 WT1      5558     TIP3     H1       HT       0.417000        1.0080           0
     17217 WT1      5558     TIP3     H2       HT       0.417000        1.0080           0
     17218 WT1      5559     TIP3     OH2      OT      -0.834000       15.9994           0
     17219 WT1      5559     TIP3     H1       HT       0.417000        1.0080           0
     17220 WT1      5559     TIP3     H2       HT       0.417000        1.0080           0
     17221 WT1      5560     TIP3     OH2      OT      -0.834000       15.9994           0
     17222 WT1      5560     TIP3     H1       HT       0.417000        1.0080           0
     17223 WT1      5560     TIP3     H2       HT       0.417000        1.0080           0
     17224 WT1      5561     TIP3     OH2      OT      -0.834000       15.9994           0
     17225 WT1      5561     TIP3     H1       HT       0.417000        1.0080           0
     17226 WT1      5561     TIP3     H2       HT       0.417000        1.0080           0
     17227 WT1      5562     TIP3     OH2      OT      -0.834000       15.9994           0
     17228 WT1      5562     TIP3     H1       HT       0.417000        1.0080           0
     17229 WT1      5562     TIP3     H2       HT       0.417000        1.0080           0
     17230 WT1      5563     TIP3     OH2      OT      -0.834000       15.9994           0
     17231 WT1      5563     TIP3     H1       HT       0.417000        1.0080           0
     17232 WT1      5563     TIP3     H2       HT       0.417000        1.0080           0
     17233 WT1      5564     TIP3     OH2      OT      -0.834000       15.9994           0
     17234 WT1      5564     TIP3     H1       HT       0.417000        1.0080           0
     17235 WT1      5564     TIP3     H2       HT       0.417000        1.0080           0
     17236 WT1      5565     TIP3     OH2      OT      -0.834000       15.9994           0
     17237 WT1      5565     TIP3     H1       HT       0.417000        1.0080           0
     17238 WT1      5565     TIP3     H2       HT       0.417000        1.0080           0
     17239 WT1      5566     TIP3     OH2      OT      -0.834000       15.9994           0
     17240 WT1      5566     TIP3     H1       HT       0.417000        1.0080           0
     17241 WT1      5566     TIP3     H2       HT       0.417000        1.0080           0
     17242 WT1      5567     TIP3     OH2      OT      -0.834000       15.9994           0
     17243 WT1      5567     TIP3     H1       HT       0.417000        1.0080           0
     17244 WT1      5567     TIP3     H2       HT       0.417000        1.0080           0
     17245 WT1      5568     TIP3     OH2      OT      -0.834000       15.9994           0
     17246 WT1      5568     TIP3     H1       HT       0.417000        1.0080           0
     17247 WT1      5568     TIP3     H2       HT       0.417000        1.0080           0
     17248 WT1      5569     TIP3     OH2      OT      -0.834000       15.9994           0
     17249 WT1      5569     TIP3     H1       HT       0.417000        1.0080           0
     17250 WT1      5569     TIP3     H2       HT       0.417000        1.0080           0
     17251 WT1      5570     TIP3     OH2      OT      -0.834000       15.9994           0
     17252 WT1      5570     TIP3     H1       HT       0.417000        1.0080           0
     17253 WT1      5570     TIP3     H2       HT       0.417000        1.0080           0
     17254 WT1      5571     TIP3     OH2      OT      -0.834000       15.9994           0
     17255 WT1      5571     TIP3     H1       HT       0.417000        1.0080           0
     17256 WT1      5571     TIP3     H2       HT       0.417000        1.0080           0
     17257 WT1      5572     TIP3     OH2      OT      -0.834000       15.9994           0
     17258 WT1      5572     TIP3     H1       HT       0.417000        1.0080           0
     17259 WT1      5572     TIP3     H2       HT       0.417000        1.0080           0
     17260 WT1      5573     TIP3     OH2      OT      -0.834000       15.9994           0
     17261 WT1      5573     TIP3     H1       HT       0.417000        1.0080           0
     17262 WT1      5573     TIP3     H2       HT       0.417000        1.0080           0
     17263 WT1      5574     TIP3     OH2      OT      -0.834000       15.9994           0
     17264 WT1      5574     TIP3     H1       HT       0.417000        1.0080           0
     17265 WT1      5574     TIP3     H2       HT       0.417000        1.0080           0
     17266 WT1      5575     TIP3     OH2      OT      -0.834000       15.9994           0
     17267 WT1      5575     TIP3     H1       HT       0.417000        1.0080           0
     17268 WT1      5575     TIP3     H2       HT       0.417000        1.0080           0
     17269 WT1      5576     TIP3     OH2      OT      -0.834000       15.9994           0
     17270 WT1      5576     TIP3     H1       HT       0.417000        1.0080           0
     17271 WT1      5576     TIP3     H2       HT       0.417000        1.0080           0
     17272 WT1      5577     TIP3     OH2      OT      -0.834000       15.9994           0
     17273 WT1      5577     TIP3     H1       HT       0.417000        1.0080           0
     17274 WT1      5577     TIP3     H2       HT       0.417000        1.0080           0
     17275 WT1      5578     TIP3     OH2      OT      -0.834000       15.9994           0
     17276 WT1      5578     TIP3     H1       HT       0.417000        1.0080           0
     17277 WT1      5578     TIP3     H2       HT       0.417000        1.0080           0
     17278 WT1      5580     TIP3     OH2      OT      -0.834000       15.9994           0
     17279 WT1      5580     TIP3     H1       HT       0.417000        1.0080           0
     17280 WT1      5580     TIP3     H2       HT       0.417000        1.0080           0
     17281 WT1      5581     TIP3     OH2      OT      -0.834000       15.9994           0
     17282 WT1      5581     TIP3     H1       HT       0.417000        1.0080           0
     17283 WT1      5581     TIP3     H2       HT       0.417000        1.0080           0
     17284 WT1      5582     TIP3     OH2      OT      -0.834000       15.9994           0
     17285 WT1      5582     TIP3     H1       HT       0.417000        1.0080           0
     17286 WT1      5582     TIP3     H2       HT       0.417000        1.0080           0
     17287 WT1      5583     TIP3     OH2      OT      -0.834000       15.9994           0
     17288 WT1      5583     TIP3     H1       HT       0.417000        1.0080           0
     17289 WT1      5583     TIP3     H2       HT       0.417000        1.0080           0
     17290 WT1      5584     TIP3     OH2      OT      -0.834000       15.9994           0
     17291 WT1      5584     TIP3     H1       HT       0.417000        1.0080           0
     17292 WT1      5584     TIP3     H2       HT       0.417000        1.0080           0
     17293 WT1      5585     TIP3     OH2      OT      -0.834000       15.9994           0
     17294 WT1      5585     TIP3     H1       HT       0.417000        1.0080           0
     17295 WT1      5585     TIP3     H2       HT       0.417000        1.0080           0
     17296 WT1      5586     TIP3     OH2      OT      -0.834000       15.9994           0
     17297 WT1      5586     TIP3     H1       HT       0.417000        1.0080           0
     17298 WT1      5586     TIP3     H2       HT       0.417000        1.0080           0
     17299 WT1      5587     TIP3     OH2      OT      -0.834000       15.9994           0
     17300 WT1      5587     TIP3     H1       HT       0.417000        1.0080           0
     17301 WT1      5587     TIP3     H2       HT       0.417000        1.0080           0
     17302 WT1      5588     TIP3     OH2      OT      -0.834000       15.9994           0
     17303 WT1      5588     TIP3     H1       HT       0.417000        1.0080           0
     17304 WT1      5588     TIP3     H2       HT       0.417000        1.0080           0
     17305 WT1      5589     TIP3     OH2      OT      -0.834000       15.9994           0
     17306 WT1      5589     TIP3     H1       HT       0.417000        1.0080           0
     17307 WT1      5589     TIP3     H2       HT       0.417000        1.0080           0
     17308 WT1      5590     TIP3     OH2      OT      -0.834000       15.9994           0
     17309 WT1      5590     TIP3     H1       HT       0.417000        1.0080           0
     17310 WT1      5590     TIP3     H2       HT       0.417000        1.0080           0
     17311 WT1      5591     TIP3     OH2      OT      -0.834000       15.9994           0
     17312 WT1      5591     TIP3     H1       HT       0.417000        1.0080           0
     17313 WT1      5591     TIP3     H2       HT       0.417000        1.0080           0
     17314 WT1      5592     TIP3     OH2      OT      -0.834000       15.9994           0
     17315 WT1      5592     TIP3     H1       HT       0.417000        1.0080           0
     17316 WT1      5592     TIP3     H2       HT       0.417000        1.0080           0
     17317 WT1      5593     TIP3     OH2      OT      -0.834000       15.9994           0
     17318 WT1      5593     TIP3     H1       HT       0.417000        1.0080           0
     17319 WT1      5593     TIP3     H2       HT       0.417000        1.0080           0
     17320 WT1      5594     TIP3     OH2      OT      -0.834000       15.9994           0
     17321 WT1      5594     TIP3     H1       HT       0.417000        1.0080           0
     17322 WT1      5594     TIP3     H2       HT       0.417000        1.0080           0
     17323 WT1      5595     TIP3     OH2      OT      -0.834000       15.9994           0
     17324 WT1      5595     TIP3     H1       HT       0.417000        1.0080           0
     17325 WT1      5595     TIP3     H2       HT       0.417000        1.0080           0
     17326 WT1      5596     TIP3     OH2      OT      -0.834000       15.9994           0
     17327 WT1      5596     TIP3     H1       HT       0.417000        1.0080           0
     17328 WT1      5596     TIP3     H2       HT       0.417000        1.0080           0
     17329 WT1      5597     TIP3     OH2      OT      -0.834000       15.9994           0
     17330 WT1      5597     TIP3     H1       HT       0.417000        1.0080           0
     17331 WT1      5597     TIP3     H2       HT       0.417000        1.0080           0
     17332 WT1      5598     TIP3     OH2      OT      -0.834000       15.9994           0
     17333 WT1      5598     TIP3     H1       HT       0.417000        1.0080           0
     17334 WT1      5598     TIP3     H2       HT       0.417000        1.0080           0
     17335 WT1      5599     TIP3     OH2      OT      -0.834000       15.9994           0
     17336 WT1      5599     TIP3     H1       HT       0.417000        1.0080           0
     17337 WT1      5599     TIP3     H2       HT       0.417000        1.0080           0
     17338 WT1      5600     TIP3     OH2      OT      -0.834000       15.9994           0
     17339 WT1      5600     TIP3     H1       HT       0.417000        1.0080           0
     17340 WT1      5600     TIP3     H2       HT       0.417000        1.0080           0
     17341 WT1      5601     TIP3     OH2      OT      -0.834000       15.9994           0
     17342 WT1      5601     TIP3     H1       HT       0.417000        1.0080           0
     17343 WT1      5601     TIP3     H2       HT       0.417000        1.0080           0
     17344 WT1      5602     TIP3     OH2      OT      -0.834000       15.9994           0
     17345 WT1      5602     TIP3     H1       HT       0.417000        1.0080           0
     17346 WT1      5602     TIP3     H2       HT       0.417000        1.0080           0
     17347 WT1      5603     TIP3     OH2      OT      -0.834000       15.9994           0
     17348 WT1      5603     TIP3     H1       HT       0.417000        1.0080           0
     17349 WT1      5603     TIP3     H2       HT       0.417000        1.0080           0
     17350 WT1      5604     TIP3     OH2      OT      -0.834000       15.9994           0
     17351 WT1      5604     TIP3     H1       HT       0.417000        1.0080           0
     17352 WT1      5604     TIP3     H2       HT       0.417000        1.0080           0
     17353 WT1      5605     TIP3     OH2      OT      -0.834000       15.9994           0
     17354 WT1      5605     TIP3     H1       HT       0.417000        1.0080           0
     17355 WT1      5605     TIP3     H2       HT       0.417000        1.0080           0
     17356 WT1      5606     TIP3     OH2      OT      -0.834000       15.9994           0
     17357 WT1      5606     TIP3     H1       HT       0.417000        1.0080           0
     17358 WT1      5606     TIP3     H2       HT       0.417000        1.0080           0
     17359 WT1      5607     TIP3     OH2      OT      -0.834000       15.9994           0
     17360 WT1      5607     TIP3     H1       HT       0.417000        1.0080           0
     17361 WT1      5607     TIP3     H2       HT       0.417000        1.0080           0
     17362 WT1      5608     TIP3     OH2      OT      -0.834000       15.9994           0
     17363 WT1      5608     TIP3     H1       HT       0.417000        1.0080           0
     17364 WT1      5608     TIP3     H2       HT       0.417000        1.0080           0
     17365 WT1      5609     TIP3     OH2      OT      -0.834000       15.9994           0
     17366 WT1      5609     TIP3     H1       HT       0.417000        1.0080           0
     17367 WT1      5609     TIP3     H2       HT       0.417000        1.0080           0
     17368 WT1      5610     TIP3     OH2      OT      -0.834000       15.9994           0
     17369 WT1      5610     TIP3     H1       HT       0.417000        1.0080           0
     17370 WT1      5610     TIP3     H2       HT       0.417000        1.0080           0
     17371 WT1      5611     TIP3     OH2      OT      -0.834000       15.9994           0
     17372 WT1      5611     TIP3     H1       HT       0.417000        1.0080           0
     17373 WT1      5611     TIP3     H2       HT       0.417000        1.0080           0
     17374 WT1      5612     TIP3     OH2      OT      -0.834000       15.9994           0
     17375 WT1      5612     TIP3     H1       HT       0.417000        1.0080           0
     17376 WT1      5612     TIP3     H2       HT       0.417000        1.0080           0
     17377 WT1      5613     TIP3     OH2      OT      -0.834000       15.9994           0
     17378 WT1      5613     TIP3     H1       HT       0.417000        1.0080           0
     17379 WT1      5613     TIP3     H2       HT       0.417000        1.0080           0
     17380 WT1      5614     TIP3     OH2      OT      -0.834000       15.9994           0
     17381 WT1      5614     TIP3     H1       HT       0.417000        1.0080           0
     17382 WT1      5614     TIP3     H2       HT       0.417000        1.0080           0
     17383 WT1      5615     TIP3     OH2      OT      -0.834000       15.9994           0
     17384 WT1      5615     TIP3     H1       HT       0.417000        1.0080           0
     17385 WT1      5615     TIP3     H2       HT       0.417000        1.0080           0
     17386 WT1      5616     TIP3     OH2      OT      -0.834000       15.9994           0
     17387 WT1      5616     TIP3     H1       HT       0.417000        1.0080           0
     17388 WT1      5616     TIP3     H2       HT       0.417000        1.0080           0
     17389 WT1      5617     TIP3     OH2      OT      -0.834000       15.9994           0
     17390 WT1      5617     TIP3     H1       HT       0.417000        1.0080           0
     17391 WT1      5617     TIP3     H2       HT       0.417000        1.0080           0
     17392 WT1      5618     TIP3     OH2      OT      -0.834000       15.9994           0
     17393 WT1      5618     TIP3     H1       HT       0.417000        1.0080           0
     17394 WT1      5618     TIP3     H2       HT       0.417000        1.0080           0
     17395 WT1      5619     TIP3     OH2      OT      -0.834000       15.9994           0
     17396 WT1      5619     TIP3     H1       HT       0.417000        1.0080           0
     17397 WT1      5619     TIP3     H2       HT       0.417000        1.0080           0
     17398 WT1      5620     TIP3     OH2      OT      -0.834000       15.9994           0
     17399 WT1      5620     TIP3     H1       HT       0.417000        1.0080           0
     17400 WT1      5620     TIP3     H2       HT       0.417000        1.0080           0
     17401 WT1      5621     TIP3     OH2      OT      -0.834000       15.9994           0
     17402 WT1      5621     TIP3     H1       HT       0.417000        1.0080           0
     17403 WT1      5621     TIP3     H2       HT       0.417000        1.0080           0
     17404 WT1      5622     TIP3     OH2      OT      -0.834000       15.9994           0
     17405 WT1      5622     TIP3     H1       HT       0.417000        1.0080           0
     17406 WT1      5622     TIP3     H2       HT       0.417000        1.0080           0
     17407 WT1      5623     TIP3     OH2      OT      -0.834000       15.9994           0
     17408 WT1      5623     TIP3     H1       HT       0.417000        1.0080           0
     17409 WT1      5623     TIP3     H2       HT       0.417000        1.0080           0
     17410 WT1      5624     TIP3     OH2      OT      -0.834000       15.9994           0
     17411 WT1      5624     TIP3     H1       HT       0.417000        1.0080           0
     17412 WT1      5624     TIP3     H2       HT       0.417000        1.0080           0
     17413 WT1      5625     TIP3     OH2      OT      -0.834000       15.9994           0
     17414 WT1      5625     TIP3     H1       HT       0.417000        1.0080           0
     17415 WT1      5625     TIP3     H2       HT       0.417000        1.0080           0
     17416 WT1      5626     TIP3     OH2      OT      -0.834000       15.9994           0
     17417 WT1      5626     TIP3     H1       HT       0.417000        1.0080           0
     17418 WT1      5626     TIP3     H2       HT       0.417000        1.0080           0
     17419 WT1      5627     TIP3     OH2      OT      -0.834000       15.9994           0
     17420 WT1      5627     TIP3     H1       HT       0.417000        1.0080           0
     17421 WT1      5627     TIP3     H2       HT       0.417000        1.0080           0
     17422 WT1      5628     TIP3     OH2      OT      -0.834000       15.9994           0
     17423 WT1      5628     TIP3     H1       HT       0.417000        1.0080           0
     17424 WT1      5628     TIP3     H2       HT       0.417000        1.0080           0
     17425 WT1      5629     TIP3     OH2      OT      -0.834000       15.9994           0
     17426 WT1      5629     TIP3     H1       HT       0.417000        1.0080           0
     17427 WT1      5629     TIP3     H2       HT       0.417000        1.0080           0
     17428 WT1      5630     TIP3     OH2      OT      -0.834000       15.9994           0
     17429 WT1      5630     TIP3     H1       HT       0.417000        1.0080           0
     17430 WT1      5630     TIP3     H2       HT       0.417000        1.0080           0
     17431 WT1      5631     TIP3     OH2      OT      -0.834000       15.9994           0
     17432 WT1      5631     TIP3     H1       HT       0.417000        1.0080           0
     17433 WT1      5631     TIP3     H2       HT       0.417000        1.0080           0
     17434 WT1      5632     TIP3     OH2      OT      -0.834000       15.9994           0
     17435 WT1      5632     TIP3     H1       HT       0.417000        1.0080           0
     17436 WT1      5632     TIP3     H2       HT       0.417000        1.0080           0
     17437 WT1      5633     TIP3     OH2      OT      -0.834000       15.9994           0
     17438 WT1      5633     TIP3     H1       HT       0.417000        1.0080           0
     17439 WT1      5633     TIP3     H2       HT       0.417000        1.0080           0
     17440 WT1      5634     TIP3     OH2      OT      -0.834000       15.9994           0
     17441 WT1      5634     TIP3     H1       HT       0.417000        1.0080           0
     17442 WT1      5634     TIP3     H2       HT       0.417000        1.0080           0
     17443 WT1      5635     TIP3     OH2      OT      -0.834000       15.9994           0
     17444 WT1      5635     TIP3     H1       HT       0.417000        1.0080           0
     17445 WT1      5635     TIP3     H2       HT       0.417000        1.0080           0
     17446 WT1      5636     TIP3     OH2      OT      -0.834000       15.9994           0
     17447 WT1      5636     TIP3     H1       HT       0.417000        1.0080           0
     17448 WT1      5636     TIP3     H2       HT       0.417000        1.0080           0
     17449 WT1      5637     TIP3     OH2      OT      -0.834000       15.9994           0
     17450 WT1      5637     TIP3     H1       HT       0.417000        1.0080           0
     17451 WT1      5637     TIP3     H2       HT       0.417000        1.0080           0
     17452 WT1      5638     TIP3     OH2      OT      -0.834000       15.9994           0
     17453 WT1      5638     TIP3     H1       HT       0.417000        1.0080           0
     17454 WT1      5638     TIP3     H2       HT       0.417000        1.0080           0
     17455 WT1      5639     TIP3     OH2      OT      -0.834000       15.9994           0
     17456 WT1      5639     TIP3     H1       HT       0.417000        1.0080           0
     17457 WT1      5639     TIP3     H2       HT       0.417000        1.0080           0
     17458 WT1      5640     TIP3     OH2      OT      -0.834000       15.9994           0
     17459 WT1      5640     TIP3     H1       HT       0.417000        1.0080           0
     17460 WT1      5640     TIP3     H2       HT       0.417000        1.0080           0
     17461 WT1      5642     TIP3     OH2      OT      -0.834000       15.9994           0
     17462 WT1      5642     TIP3     H1       HT       0.417000        1.0080           0
     17463 WT1      5642     TIP3     H2       HT       0.417000        1.0080           0
     17464 WT1      5643     TIP3     OH2      OT      -0.834000       15.9994           0
     17465 WT1      5643     TIP3     H1       HT       0.417000        1.0080           0
     17466 WT1      5643     TIP3     H2       HT       0.417000        1.0080           0
     17467 WT1      5644     TIP3     OH2      OT      -0.834000       15.9994           0
     17468 WT1      5644     TIP3     H1       HT       0.417000        1.0080           0
     17469 WT1      5644     TIP3     H2       HT       0.417000        1.0080           0
     17470 WT1      5645     TIP3     OH2      OT      -0.834000       15.9994           0
     17471 WT1      5645     TIP3     H1       HT       0.417000        1.0080           0
     17472 WT1      5645     TIP3     H2       HT       0.417000        1.0080           0
     17473 WT1      5646     TIP3     OH2      OT      -0.834000       15.9994           0
     17474 WT1      5646     TIP3     H1       HT       0.417000        1.0080           0
     17475 WT1      5646     TIP3     H2       HT       0.417000        1.0080           0
     17476 WT1      5647     TIP3     OH2      OT      -0.834000       15.9994           0
     17477 WT1      5647     TIP3     H1       HT       0.417000        1.0080           0
     17478 WT1      5647     TIP3     H2       HT       0.417000        1.0080           0
     17479 WT1      5648     TIP3     OH2      OT      -0.834000       15.9994           0
     17480 WT1      5648     TIP3     H1       HT       0.417000        1.0080           0
     17481 WT1      5648     TIP3     H2       HT       0.417000        1.0080           0
     17482 WT1      5649     TIP3     OH2      OT      -0.834000       15.9994           0
     17483 WT1      5649     TIP3     H1       HT       0.417000        1.0080           0
     17484 WT1      5649     TIP3     H2       HT       0.417000        1.0080           0
     17485 WT1      5650     TIP3     OH2      OT      -0.834000       15.9994           0
     17486 WT1      5650     TIP3     H1       HT       0.417000        1.0080           0
     17487 WT1      5650     TIP3     H2       HT       0.417000        1.0080           0
     17488 WT1      5651     TIP3     OH2      OT      -0.834000       15.9994           0
     17489 WT1      5651     TIP3     H1       HT       0.417000        1.0080           0
     17490 WT1      5651     TIP3     H2       HT       0.417000        1.0080           0
     17491 WT1      5652     TIP3     OH2      OT      -0.834000       15.9994           0
     17492 WT1      5652     TIP3     H1       HT       0.417000        1.0080           0
     17493 WT1      5652     TIP3     H2       HT       0.417000        1.0080           0
     17494 WT1      5653     TIP3     OH2      OT      -0.834000       15.9994           0
     17495 WT1      5653     TIP3     H1       HT       0.417000        1.0080           0
     17496 WT1      5653     TIP3     H2       HT       0.417000        1.0080           0
     17497 WT1      5654     TIP3     OH2      OT      -0.834000       15.9994           0
     17498 WT1      5654     TIP3     H1       HT       0.417000        1.0080           0
     17499 WT1      5654     TIP3     H2       HT       0.417000        1.0080           0
     17500 WT1      5655     TIP3     OH2      OT      -0.834000       15.9994           0
     17501 WT1      5655     TIP3     H1       HT       0.417000        1.0080           0
     17502 WT1      5655     TIP3     H2       HT       0.417000        1.0080           0
     17503 WT1      5656     TIP3     OH2      OT      -0.834000       15.9994           0
     17504 WT1      5656     TIP3     H1       HT       0.417000        1.0080           0
     17505 WT1      5656     TIP3     H2       HT       0.417000        1.0080           0
     17506 WT1      5657     TIP3     OH2      OT      -0.834000       15.9994           0
     17507 WT1      5657     TIP3     H1       HT       0.417000        1.0080           0
     17508 WT1      5657     TIP3     H2       HT       0.417000        1.0080           0
     17509 WT1      5658     TIP3     OH2      OT      -0.834000       15.9994           0
     17510 WT1      5658     TIP3     H1       HT       0.417000        1.0080           0
     17511 WT1      5658     TIP3     H2       HT       0.417000        1.0080           0
     17512 WT1      5659     TIP3     OH2      OT      -0.834000       15.9994           0
     17513 WT1      5659     TIP3     H1       HT       0.417000        1.0080           0
     17514 WT1      5659     TIP3     H2       HT       0.417000        1.0080           0
     17515 WT1      5660     TIP3     OH2      OT      -0.834000       15.9994           0
     17516 WT1      5660     TIP3     H1       HT       0.417000        1.0080           0
     17517 WT1      5660     TIP3     H2       HT       0.417000        1.0080           0
     17518 WT1      5661     TIP3     OH2      OT      -0.834000       15.9994           0
     17519 WT1      5661     TIP3     H1       HT       0.417000        1.0080           0
     17520 WT1      5661     TIP3     H2       HT       0.417000        1.0080           0
     17521 WT1      5662     TIP3     OH2      OT      -0.834000       15.9994           0
     17522 WT1      5662     TIP3     H1       HT       0.417000        1.0080           0
     17523 WT1      5662     TIP3     H2       HT       0.417000        1.0080           0
     17524 WT1      5663     TIP3     OH2      OT      -0.834000       15.9994           0
     17525 WT1      5663     TIP3     H1       HT       0.417000        1.0080           0
     17526 WT1      5663     TIP3     H2       HT       0.417000        1.0080           0
     17527 WT1      5664     TIP3     OH2      OT      -0.834000       15.9994           0
     17528 WT1      5664     TIP3     H1       HT       0.417000        1.0080           0
     17529 WT1      5664     TIP3     H2       HT       0.417000        1.0080           0
     17530 WT1      5665     TIP3     OH2      OT      -0.834000       15.9994           0
     17531 WT1      5665     TIP3     H1       HT       0.417000        1.0080           0
     17532 WT1      5665     TIP3     H2       HT       0.417000        1.0080           0
     17533 WT1      5666     TIP3     OH2      OT      -0.834000       15.9994           0
     17534 WT1      5666     TIP3     H1       HT       0.417000        1.0080           0
     17535 WT1      5666     TIP3     H2       HT       0.417000        1.0080           0
     17536 WT1      5667     TIP3     OH2      OT      -0.834000       15.9994           0
     17537 WT1      5667     TIP3     H1       HT       0.417000        1.0080           0
     17538 WT1      5667     TIP3     H2       HT       0.417000        1.0080           0
     17539 WT1      5668     TIP3     OH2      OT      -0.834000       15.9994           0
     17540 WT1      5668     TIP3     H1       HT       0.417000        1.0080           0
     17541 WT1      5668     TIP3     H2       HT       0.417000        1.0080           0
     17542 WT1      5669     TIP3     OH2      OT      -0.834000       15.9994           0
     17543 WT1      5669     TIP3     H1       HT       0.417000        1.0080           0
     17544 WT1      5669     TIP3     H2       HT       0.417000        1.0080           0
     17545 WT1      5670     TIP3     OH2      OT      -0.834000       15.9994           0
     17546 WT1      5670     TIP3     H1       HT       0.417000        1.0080           0
     17547 WT1      5670     TIP3     H2       HT       0.417000        1.0080           0
     17548 WT1      5671     TIP3     OH2      OT      -0.834000       15.9994           0
     17549 WT1      5671     TIP3     H1       HT       0.417000        1.0080           0
     17550 WT1      5671     TIP3     H2       HT       0.417000        1.0080           0
     17551 WT1      5673     TIP3     OH2      OT      -0.834000       15.9994           0
     17552 WT1      5673     TIP3     H1       HT       0.417000        1.0080           0
     17553 WT1      5673     TIP3     H2       HT       0.417000        1.0080           0
     17554 WT1      5674     TIP3     OH2      OT      -0.834000       15.9994           0
     17555 WT1      5674     TIP3     H1       HT       0.417000        1.0080           0
     17556 WT1      5674     TIP3     H2       HT       0.417000        1.0080           0
     17557 WT1      5675     TIP3     OH2      OT      -0.834000       15.9994           0
     17558 WT1      5675     TIP3     H1       HT       0.417000        1.0080           0
     17559 WT1      5675     TIP3     H2       HT       0.417000        1.0080           0
     17560 WT1      5676     TIP3     OH2      OT      -0.834000       15.9994           0
     17561 WT1      5676     TIP3     H1       HT       0.417000        1.0080           0
     17562 WT1      5676     TIP3     H2       HT       0.417000        1.0080           0
     17563 WT1      5677     TIP3     OH2      OT      -0.834000       15.9994           0
     17564 WT1      5677     TIP3     H1       HT       0.417000        1.0080           0
     17565 WT1      5677     TIP3     H2       HT       0.417000        1.0080           0
     17566 WT1      5678     TIP3     OH2      OT      -0.834000       15.9994           0
     17567 WT1      5678     TIP3     H1       HT       0.417000        1.0080           0
     17568 WT1      5678     TIP3     H2       HT       0.417000        1.0080           0
     17569 WT1      5679     TIP3     OH2      OT      -0.834000       15.9994           0
     17570 WT1      5679     TIP3     H1       HT       0.417000        1.0080           0
     17571 WT1      5679     TIP3     H2       HT       0.417000        1.0080           0
     17572 WT1      5680     TIP3     OH2      OT      -0.834000       15.9994           0
     17573 WT1      5680     TIP3     H1       HT       0.417000        1.0080           0
     17574 WT1      5680     TIP3     H2       HT       0.417000        1.0080           0
     17575 WT1      5681     TIP3     OH2      OT      -0.834000       15.9994           0
     17576 WT1      5681     TIP3     H1       HT       0.417000        1.0080           0
     17577 WT1      5681     TIP3     H2       HT       0.417000        1.0080           0
     17578 WT1      5682     TIP3     OH2      OT      -0.834000       15.9994           0
     17579 WT1      5682     TIP3     H1       HT       0.417000        1.0080           0
     17580 WT1      5682     TIP3     H2       HT       0.417000        1.0080           0
     17581 WT1      5683     TIP3     OH2      OT      -0.834000       15.9994           0
     17582 WT1      5683     TIP3     H1       HT       0.417000        1.0080           0
     17583 WT1      5683     TIP3     H2       HT       0.417000        1.0080           0
     17584 WT1      5684     TIP3     OH2      OT      -0.834000       15.9994           0
     17585 WT1      5684     TIP3     H1       HT       0.417000        1.0080           0
     17586 WT1      5684     TIP3     H2       HT       0.417000        1.0080           0
     17587 WT1      5685     TIP3     OH2      OT      -0.834000       15.9994           0
     17588 WT1      5685     TIP3     H1       HT       0.417000        1.0080           0
     17589 WT1      5685     TIP3     H2       HT       0.417000        1.0080           0
     17590 WT1      5686     TIP3     OH2      OT      -0.834000       15.9994           0
     17591 WT1      5686     TIP3     H1       HT       0.417000        1.0080           0
     17592 WT1      5686     TIP3     H2       HT       0.417000        1.0080           0
     17593 WT1      5687     TIP3     OH2      OT      -0.834000       15.9994           0
     17594 WT1      5687     TIP3     H1       HT       0.417000        1.0080           0
     17595 WT1      5687     TIP3     H2       HT       0.417000        1.0080           0
     17596 WT1      5688     TIP3     OH2      OT      -0.834000       15.9994           0
     17597 WT1      5688     TIP3     H1       HT       0.417000        1.0080           0
     17598 WT1      5688     TIP3     H2       HT       0.417000        1.0080           0
     17599 WT1      5689     TIP3     OH2      OT      -0.834000       15.9994           0
     17600 WT1      5689     TIP3     H1       HT       0.417000        1.0080           0
     17601 WT1      5689     TIP3     H2       HT       0.417000        1.0080           0
     17602 WT1      5690     TIP3     OH2      OT      -0.834000       15.9994           0
     17603 WT1      5690     TIP3     H1       HT       0.417000        1.0080           0
     17604 WT1      5690     TIP3     H2       HT       0.417000        1.0080           0
     17605 WT1      5691     TIP3     OH2      OT      -0.834000       15.9994           0
     17606 WT1      5691     TIP3     H1       HT       0.417000        1.0080           0
     17607 WT1      5691     TIP3     H2       HT       0.417000        1.0080           0
     17608 WT1      5692     TIP3     OH2      OT      -0.834000       15.9994           0
     17609 WT1      5692     TIP3     H1       HT       0.417000        1.0080           0
     17610 WT1      5692     TIP3     H2       HT       0.417000        1.0080           0
     17611 WT1      5693     TIP3     OH2      OT      -0.834000       15.9994           0
     17612 WT1      5693     TIP3     H1       HT       0.417000        1.0080           0
     17613 WT1      5693     TIP3     H2       HT       0.417000        1.0080           0
     17614 WT1      5694     TIP3     OH2      OT      -0.834000       15.9994           0
     17615 WT1      5694     TIP3     H1       HT       0.417000        1.0080           0
     17616 WT1      5694     TIP3     H2       HT       0.417000        1.0080           0
     17617 WT1      5695     TIP3     OH2      OT      -0.834000       15.9994           0
     17618 WT1      5695     TIP3     H1       HT       0.417000        1.0080           0
     17619 WT1      5695     TIP3     H2       HT       0.417000        1.0080           0
     17620 WT1      5696     TIP3     OH2      OT      -0.834000       15.9994           0
     17621 WT1      5696     TIP3     H1       HT       0.417000        1.0080           0
     17622 WT1      5696     TIP3     H2       HT       0.417000        1.0080           0
     17623 WT1      5697     TIP3     OH2      OT      -0.834000       15.9994           0
     17624 WT1      5697     TIP3     H1       HT       0.417000        1.0080           0
     17625 WT1      5697     TIP3     H2       HT       0.417000        1.0080           0
     17626 WT1      5698     TIP3     OH2      OT      -0.834000       15.9994           0
     17627 WT1      5698     TIP3     H1       HT       0.417000        1.0080           0
     17628 WT1      5698     TIP3     H2       HT       0.417000        1.0080           0
     17629 WT1      5699     TIP3     OH2      OT      -0.834000       15.9994           0
     17630 WT1      5699     TIP3     H1       HT       0.417000        1.0080           0
     17631 WT1      5699     TIP3     H2       HT       0.417000        1.0080           0
     17632 WT1      5700     TIP3     OH2      OT      -0.834000       15.9994           0
     17633 WT1      5700     TIP3     H1       HT       0.417000        1.0080           0
     17634 WT1      5700     TIP3     H2       HT       0.417000        1.0080           0
     17635 WT1      5701     TIP3     OH2      OT      -0.834000       15.9994           0
     17636 WT1      5701     TIP3     H1       HT       0.417000        1.0080           0
     17637 WT1      5701     TIP3     H2       HT       0.417000        1.0080           0
     17638 WT1      5702     TIP3     OH2      OT      -0.834000       15.9994           0
     17639 WT1      5702     TIP3     H1       HT       0.417000        1.0080           0
     17640 WT1      5702     TIP3     H2       HT       0.417000        1.0080           0
     17641 WT1      5703     TIP3     OH2      OT      -0.834000       15.9994           0
     17642 WT1      5703     TIP3     H1       HT       0.417000        1.0080           0
     17643 WT1      5703     TIP3     H2       HT       0.417000        1.0080           0
     17644 WT1      5704     TIP3     OH2      OT      -0.834000       15.9994           0
     17645 WT1      5704     TIP3     H1       HT       0.417000        1.0080           0
     17646 WT1      5704     TIP3     H2       HT       0.417000        1.0080           0
     17647 WT1      5705     TIP3     OH2      OT      -0.834000       15.9994           0
     17648 WT1      5705     TIP3     H1       HT       0.417000        1.0080           0
     17649 WT1      5705     TIP3     H2       HT       0.417000        1.0080           0
     17650 WT1      5706     TIP3     OH2      OT      -0.834000       15.9994           0
     17651 WT1      5706     TIP3     H1       HT       0.417000        1.0080           0
     17652 WT1      5706     TIP3     H2       HT       0.417000        1.0080           0
     17653 WT1      5707     TIP3     OH2      OT      -0.834000       15.9994           0
     17654 WT1      5707     TIP3     H1       HT       0.417000        1.0080           0
     17655 WT1      5707     TIP3     H2       HT       0.417000        1.0080           0
     17656 WT1      5708     TIP3     OH2      OT      -0.834000       15.9994           0
     17657 WT1      5708     TIP3     H1       HT       0.417000        1.0080           0
     17658 WT1      5708     TIP3     H2       HT       0.417000        1.0080           0
     17659 WT1      5709     TIP3     OH2      OT      -0.834000       15.9994           0
     17660 WT1      5709     TIP3     H1       HT       0.417000        1.0080           0
     17661 WT1      5709     TIP3     H2       HT       0.417000        1.0080           0
     17662 WT1      5710     TIP3     OH2      OT      -0.834000       15.9994           0
     17663 WT1      5710     TIP3     H1       HT       0.417000        1.0080           0
     17664 WT1      5710     TIP3     H2       HT       0.417000        1.0080           0
     17665 WT1      5711     TIP3     OH2      OT      -0.834000       15.9994           0
     17666 WT1      5711     TIP3     H1       HT       0.417000        1.0080           0
     17667 WT1      5711     TIP3     H2       HT       0.417000        1.0080           0
     17668 WT1      5712     TIP3     OH2      OT      -0.834000       15.9994           0
     17669 WT1      5712     TIP3     H1       HT       0.417000        1.0080           0
     17670 WT1      5712     TIP3     H2       HT       0.417000        1.0080           0
     17671 WT1      5713     TIP3     OH2      OT      -0.834000       15.9994           0
     17672 WT1      5713     TIP3     H1       HT       0.417000        1.0080           0
     17673 WT1      5713     TIP3     H2       HT       0.417000        1.0080           0
     17674 WT1      5714     TIP3     OH2      OT      -0.834000       15.9994           0
     17675 WT1      5714     TIP3     H1       HT       0.417000        1.0080           0
     17676 WT1      5714     TIP3     H2       HT       0.417000        1.0080           0
     17677 WT1      5716     TIP3     OH2      OT      -0.834000       15.9994           0
     17678 WT1      5716     TIP3     H1       HT       0.417000        1.0080           0
     17679 WT1      5716     TIP3     H2       HT       0.417000        1.0080           0
     17680 WT1      5717     TIP3     OH2      OT      -0.834000       15.9994           0
     17681 WT1      5717     TIP3     H1       HT       0.417000        1.0080           0
     17682 WT1      5717     TIP3     H2       HT       0.417000        1.0080           0
     17683 WT1      5718     TIP3     OH2      OT      -0.834000       15.9994           0
     17684 WT1      5718     TIP3     H1       HT       0.417000        1.0080           0
     17685 WT1      5718     TIP3     H2       HT       0.417000        1.0080           0
     17686 WT1      5719     TIP3     OH2      OT      -0.834000       15.9994           0
     17687 WT1      5719     TIP3     H1       HT       0.417000        1.0080           0
     17688 WT1      5719     TIP3     H2       HT       0.417000        1.0080           0
     17689 WT1      5720     TIP3     OH2      OT      -0.834000       15.9994           0
     17690 WT1      5720     TIP3     H1       HT       0.417000        1.0080           0
     17691 WT1      5720     TIP3     H2       HT       0.417000        1.0080           0
     17692 WT1      5721     TIP3     OH2      OT      -0.834000       15.9994           0
     17693 WT1      5721     TIP3     H1       HT       0.417000        1.0080           0
     17694 WT1      5721     TIP3     H2       HT       0.417000        1.0080           0
     17695 WT1      5722     TIP3     OH2      OT      -0.834000       15.9994           0
     17696 WT1      5722     TIP3     H1       HT       0.417000        1.0080           0
     17697 WT1      5722     TIP3     H2       HT       0.417000        1.0080           0
     17698 WT1      5723     TIP3     OH2      OT      -0.834000       15.9994           0
     17699 WT1      5723     TIP3     H1       HT       0.417000        1.0080           0
     17700 WT1      5723     TIP3     H2       HT       0.417000        1.0080           0
     17701 WT1      5724     TIP3     OH2      OT      -0.834000       15.9994           0
     17702 WT1      5724     TIP3     H1       HT       0.417000        1.0080           0
     17703 WT1      5724     TIP3     H2       HT       0.417000        1.0080           0
     17704 WT1      5725     TIP3     OH2      OT      -0.834000       15.9994           0
     17705 WT1      5725     TIP3     H1       HT       0.417000        1.0080           0
     17706 WT1      5725     TIP3     H2       HT       0.417000        1.0080           0
     17707 WT1      5726     TIP3     OH2      OT      -0.834000       15.9994           0
     17708 WT1      5726     TIP3     H1       HT       0.417000        1.0080           0
     17709 WT1      5726     TIP3     H2       HT       0.417000        1.0080           0
     17710 WT1      5727     TIP3     OH2      OT      -0.834000       15.9994           0
     17711 WT1      5727     TIP3     H1       HT       0.417000        1.0080           0
     17712 WT1      5727     TIP3     H2       HT       0.417000        1.0080           0
     17713 WT1      5728     TIP3     OH2      OT      -0.834000       15.9994           0
     17714 WT1      5728     TIP3     H1       HT       0.417000        1.0080           0
     17715 WT1      5728     TIP3     H2       HT       0.417000        1.0080           0
     17716 WT1      5729     TIP3     OH2      OT      -0.834000       15.9994           0
     17717 WT1      5729     TIP3     H1       HT       0.417000        1.0080           0
     17718 WT1      5729     TIP3     H2       HT       0.417000        1.0080           0
     17719 WT1      5730     TIP3     OH2      OT      -0.834000       15.9994           0
     17720 WT1      5730     TIP3     H1       HT       0.417000        1.0080           0
     17721 WT1      5730     TIP3     H2       HT       0.417000        1.0080           0
     17722 WT1      5731     TIP3     OH2      OT      -0.834000       15.9994           0
     17723 WT1      5731     TIP3     H1       HT       0.417000        1.0080           0
     17724 WT1      5731     TIP3     H2       HT       0.417000        1.0080           0
     17725 WT1      5732     TIP3     OH2      OT      -0.834000       15.9994           0
     17726 WT1      5732     TIP3     H1       HT       0.417000        1.0080           0
     17727 WT1      5732     TIP3     H2       HT       0.417000        1.0080           0
     17728 WT1      5733     TIP3     OH2      OT      -0.834000       15.9994           0
     17729 WT1      5733     TIP3     H1       HT       0.417000        1.0080           0
     17730 WT1      5733     TIP3     H2       HT       0.417000        1.0080           0
     17731 WT1      5734     TIP3     OH2      OT      -0.834000       15.9994           0
     17732 WT1      5734     TIP3     H1       HT       0.417000        1.0080           0
     17733 WT1      5734     TIP3     H2       HT       0.417000        1.0080           0
     17734 WT1      5735     TIP3     OH2      OT      -0.834000       15.9994           0
     17735 WT1      5735     TIP3     H1       HT       0.417000        1.0080           0
     17736 WT1      5735     TIP3     H2       HT       0.417000        1.0080           0
     17737 WT1      5736     TIP3     OH2      OT      -0.834000       15.9994           0
     17738 WT1      5736     TIP3     H1       HT       0.417000        1.0080           0
     17739 WT1      5736     TIP3     H2       HT       0.417000        1.0080           0
     17740 WT1      5737     TIP3     OH2      OT      -0.834000       15.9994           0
     17741 WT1      5737     TIP3     H1       HT       0.417000        1.0080           0
     17742 WT1      5737     TIP3     H2       HT       0.417000        1.0080           0
     17743 WT1      5738     TIP3     OH2      OT      -0.834000       15.9994           0
     17744 WT1      5738     TIP3     H1       HT       0.417000        1.0080           0
     17745 WT1      5738     TIP3     H2       HT       0.417000        1.0080           0
     17746 WT1      5739     TIP3     OH2      OT      -0.834000       15.9994           0
     17747 WT1      5739     TIP3     H1       HT       0.417000        1.0080           0
     17748 WT1      5739     TIP3     H2       HT       0.417000        1.0080           0
     17749 WT1      5740     TIP3     OH2      OT      -0.834000       15.9994           0
     17750 WT1      5740     TIP3     H1       HT       0.417000        1.0080           0
     17751 WT1      5740     TIP3     H2       HT       0.417000        1.0080           0
     17752 WT1      5741     TIP3     OH2      OT      -0.834000       15.9994           0
     17753 WT1      5741     TIP3     H1       HT       0.417000        1.0080           0
     17754 WT1      5741     TIP3     H2       HT       0.417000        1.0080           0
     17755 WT1      5742     TIP3     OH2      OT      -0.834000       15.9994           0
     17756 WT1      5742     TIP3     H1       HT       0.417000        1.0080           0
     17757 WT1      5742     TIP3     H2       HT       0.417000        1.0080           0
     17758 WT1      5743     TIP3     OH2      OT      -0.834000       15.9994           0
     17759 WT1      5743     TIP3     H1       HT       0.417000        1.0080           0
     17760 WT1      5743     TIP3     H2       HT       0.417000        1.0080           0
     17761 WT1      5744     TIP3     OH2      OT      -0.834000       15.9994           0
     17762 WT1      5744     TIP3     H1       HT       0.417000        1.0080           0
     17763 WT1      5744     TIP3     H2       HT       0.417000        1.0080           0
     17764 WT1      5745     TIP3     OH2      OT      -0.834000       15.9994           0
     17765 WT1      5745     TIP3     H1       HT       0.417000        1.0080           0
     17766 WT1      5745     TIP3     H2       HT       0.417000        1.0080           0
     17767 WT1      5746     TIP3     OH2      OT      -0.834000       15.9994           0
     17768 WT1      5746     TIP3     H1       HT       0.417000        1.0080           0
     17769 WT1      5746     TIP3     H2       HT       0.417000        1.0080           0
     17770 WT1      5747     TIP3     OH2      OT      -0.834000       15.9994           0
     17771 WT1      5747     TIP3     H1       HT       0.417000        1.0080           0
     17772 WT1      5747     TIP3     H2       HT       0.417000        1.0080           0
     17773 WT1      5748     TIP3     OH2      OT      -0.834000       15.9994           0
     17774 WT1      5748     TIP3     H1       HT       0.417000        1.0080           0
     17775 WT1      5748     TIP3     H2       HT       0.417000        1.0080           0
     17776 WT1      5749     TIP3     OH2      OT      -0.834000       15.9994           0
     17777 WT1      5749     TIP3     H1       HT       0.417000        1.0080           0
     17778 WT1      5749     TIP3     H2       HT       0.417000        1.0080           0
     17779 WT1      5750     TIP3     OH2      OT      -0.834000       15.9994           0
     17780 WT1      5750     TIP3     H1       HT       0.417000        1.0080           0
     17781 WT1      5750     TIP3     H2       HT       0.417000        1.0080           0
     17782 WT1      5751     TIP3     OH2      OT      -0.834000       15.9994           0
     17783 WT1      5751     TIP3     H1       HT       0.417000        1.0080           0
     17784 WT1      5751     TIP3     H2       HT       0.417000        1.0080           0
     17785 WT1      5752     TIP3     OH2      OT      -0.834000       15.9994           0
     17786 WT1      5752     TIP3     H1       HT       0.417000        1.0080           0
     17787 WT1      5752     TIP3     H2       HT       0.417000        1.0080           0
     17788 WT1      5753     TIP3     OH2      OT      -0.834000       15.9994           0
     17789 WT1      5753     TIP3     H1       HT       0.417000        1.0080           0
     17790 WT1      5753     TIP3     H2       HT       0.417000        1.0080           0
     17791 WT1      5754     TIP3     OH2      OT      -0.834000       15.9994           0
     17792 WT1      5754     TIP3     H1       HT       0.417000        1.0080           0
     17793 WT1      5754     TIP3     H2       HT       0.417000        1.0080           0
     17794 WT1      5755     TIP3     OH2      OT      -0.834000       15.9994           0
     17795 WT1      5755     TIP3     H1       HT       0.417000        1.0080           0
     17796 WT1      5755     TIP3     H2       HT       0.417000        1.0080           0
     17797 WT1      5756     TIP3     OH2      OT      -0.834000       15.9994           0
     17798 WT1      5756     TIP3     H1       HT       0.417000        1.0080           0
     17799 WT1      5756     TIP3     H2       HT       0.417000        1.0080           0
     17800 WT1      5757     TIP3     OH2      OT      -0.834000       15.9994           0
     17801 WT1      5757     TIP3     H1       HT       0.417000        1.0080           0
     17802 WT1      5757     TIP3     H2       HT       0.417000        1.0080           0
     17803 WT1      5758     TIP3     OH2      OT      -0.834000       15.9994           0
     17804 WT1      5758     TIP3     H1       HT       0.417000        1.0080           0
     17805 WT1      5758     TIP3     H2       HT       0.417000        1.0080           0
     17806 WT1      5759     TIP3     OH2      OT      -0.834000       15.9994           0
     17807 WT1      5759     TIP3     H1       HT       0.417000        1.0080           0
     17808 WT1      5759     TIP3     H2       HT       0.417000        1.0080           0
     17809 WT1      5760     TIP3     OH2      OT      -0.834000       15.9994           0
     17810 WT1      5760     TIP3     H1       HT       0.417000        1.0080           0
     17811 WT1      5760     TIP3     H2       HT       0.417000        1.0080           0
     17812 WT1      5761     TIP3     OH2      OT      -0.834000       15.9994           0
     17813 WT1      5761     TIP3     H1       HT       0.417000        1.0080           0
     17814 WT1      5761     TIP3     H2       HT       0.417000        1.0080           0
     17815 WT1      5762     TIP3     OH2      OT      -0.834000       15.9994           0
     17816 WT1      5762     TIP3     H1       HT       0.417000        1.0080           0
     17817 WT1      5762     TIP3     H2       HT       0.417000        1.0080           0
     17818 WT1      5763     TIP3     OH2      OT      -0.834000       15.9994           0
     17819 WT1      5763     TIP3     H1       HT       0.417000        1.0080           0
     17820 WT1      5763     TIP3     H2       HT       0.417000        1.0080           0
     17821 WT1      5764     TIP3     OH2      OT      -0.834000       15.9994           0
     17822 WT1      5764     TIP3     H1       HT       0.417000        1.0080           0
     17823 WT1      5764     TIP3     H2       HT       0.417000        1.0080           0
     17824 WT1      5765     TIP3     OH2      OT      -0.834000       15.9994           0
     17825 WT1      5765     TIP3     H1       HT       0.417000        1.0080           0
     17826 WT1      5765     TIP3     H2       HT       0.417000        1.0080           0
     17827 WT1      5766     TIP3     OH2      OT      -0.834000       15.9994           0
     17828 WT1      5766     TIP3     H1       HT       0.417000        1.0080           0
     17829 WT1      5766     TIP3     H2       HT       0.417000        1.0080           0
     17830 WT1      5767     TIP3     OH2      OT      -0.834000       15.9994           0
     17831 WT1      5767     TIP3     H1       HT       0.417000        1.0080           0
     17832 WT1      5767     TIP3     H2       HT       0.417000        1.0080           0
     17833 WT1      5768     TIP3     OH2      OT      -0.834000       15.9994           0
     17834 WT1      5768     TIP3     H1       HT       0.417000        1.0080           0
     17835 WT1      5768     TIP3     H2       HT       0.417000        1.0080           0
     17836 WT1      5769     TIP3     OH2      OT      -0.834000       15.9994           0
     17837 WT1      5769     TIP3     H1       HT       0.417000        1.0080           0
     17838 WT1      5769     TIP3     H2       HT       0.417000        1.0080           0
     17839 WT1      5770     TIP3     OH2      OT      -0.834000       15.9994           0
     17840 WT1      5770     TIP3     H1       HT       0.417000        1.0080           0
     17841 WT1      5770     TIP3     H2       HT       0.417000        1.0080           0
     17842 WT1      5771     TIP3     OH2      OT      -0.834000       15.9994           0
     17843 WT1      5771     TIP3     H1       HT       0.417000        1.0080           0
     17844 WT1      5771     TIP3     H2       HT       0.417000        1.0080           0
     17845 WT1      5772     TIP3     OH2      OT      -0.834000       15.9994           0
     17846 WT1      5772     TIP3     H1       HT       0.417000        1.0080           0
     17847 WT1      5772     TIP3     H2       HT       0.417000        1.0080           0
     17848 WT1      5773     TIP3     OH2      OT      -0.834000       15.9994           0
     17849 WT1      5773     TIP3     H1       HT       0.417000        1.0080           0
     17850 WT1      5773     TIP3     H2       HT       0.417000        1.0080           0
     17851 WT1      5774     TIP3     OH2      OT      -0.834000       15.9994           0
     17852 WT1      5774     TIP3     H1       HT       0.417000        1.0080           0
     17853 WT1      5774     TIP3     H2       HT       0.417000        1.0080           0
     17854 WT1      5775     TIP3     OH2      OT      -0.834000       15.9994           0
     17855 WT1      5775     TIP3     H1       HT       0.417000        1.0080           0
     17856 WT1      5775     TIP3     H2       HT       0.417000        1.0080           0
     17857 WT1      5776     TIP3     OH2      OT      -0.834000       15.9994           0
     17858 WT1      5776     TIP3     H1       HT       0.417000        1.0080           0
     17859 WT1      5776     TIP3     H2       HT       0.417000        1.0080           0
     17860 WT1      5777     TIP3     OH2      OT      -0.834000       15.9994           0
     17861 WT1      5777     TIP3     H1       HT       0.417000        1.0080           0
     17862 WT1      5777     TIP3     H2       HT       0.417000        1.0080           0
     17863 WT1      5778     TIP3     OH2      OT      -0.834000       15.9994           0
     17864 WT1      5778     TIP3     H1       HT       0.417000        1.0080           0
     17865 WT1      5778     TIP3     H2       HT       0.417000        1.0080           0
     17866 WT1      5779     TIP3     OH2      OT      -0.834000       15.9994           0
     17867 WT1      5779     TIP3     H1       HT       0.417000        1.0080           0
     17868 WT1      5779     TIP3     H2       HT       0.417000        1.0080           0
     17869 WT1      5780     TIP3     OH2      OT      -0.834000       15.9994           0
     17870 WT1      5780     TIP3     H1       HT       0.417000        1.0080           0
     17871 WT1      5780     TIP3     H2       HT       0.417000        1.0080           0
     17872 WT1      5781     TIP3     OH2      OT      -0.834000       15.9994           0
     17873 WT1      5781     TIP3     H1       HT       0.417000        1.0080           0
     17874 WT1      5781     TIP3     H2       HT       0.417000        1.0080           0
     17875 WT1      5782     TIP3     OH2      OT      -0.834000       15.9994           0
     17876 WT1      5782     TIP3     H1       HT       0.417000        1.0080           0
     17877 WT1      5782     TIP3     H2       HT       0.417000        1.0080           0
     17878 WT1      5783     TIP3     OH2      OT      -0.834000       15.9994           0
     17879 WT1      5783     TIP3     H1       HT       0.417000        1.0080           0
     17880 WT1      5783     TIP3     H2       HT       0.417000        1.0080           0
     17881 WT1      5784     TIP3     OH2      OT      -0.834000       15.9994           0
     17882 WT1      5784     TIP3     H1       HT       0.417000        1.0080           0
     17883 WT1      5784     TIP3     H2       HT       0.417000        1.0080           0
     17884 WT1      5785     TIP3     OH2      OT      -0.834000       15.9994           0
     17885 WT1      5785     TIP3     H1       HT       0.417000        1.0080           0
     17886 WT1      5785     TIP3     H2       HT       0.417000        1.0080           0
     17887 WT1      5786     TIP3     OH2      OT      -0.834000       15.9994           0
     17888 WT1      5786     TIP3     H1       HT       0.417000        1.0080           0
     17889 WT1      5786     TIP3     H2       HT       0.417000        1.0080           0
     17890 WT1      5787     TIP3     OH2      OT      -0.834000       15.9994           0
     17891 WT1      5787     TIP3     H1       HT       0.417000        1.0080           0
     17892 WT1      5787     TIP3     H2       HT       0.417000        1.0080           0
     17893 WT1      5788     TIP3     OH2      OT      -0.834000       15.9994           0
     17894 WT1      5788     TIP3     H1       HT       0.417000        1.0080           0
     17895 WT1      5788     TIP3     H2       HT       0.417000        1.0080           0
     17896 WT1      5789     TIP3     OH2      OT      -0.834000       15.9994           0
     17897 WT1      5789     TIP3     H1       HT       0.417000        1.0080           0
     17898 WT1      5789     TIP3     H2       HT       0.417000        1.0080           0
     17899 WT1      5790     TIP3     OH2      OT      -0.834000       15.9994           0
     17900 WT1      5790     TIP3     H1       HT       0.417000        1.0080           0
     17901 WT1      5790     TIP3     H2       HT       0.417000        1.0080           0
     17902 WT1      5791     TIP3     OH2      OT      -0.834000       15.9994           0
     17903 WT1      5791     TIP3     H1       HT       0.417000        1.0080           0
     17904 WT1      5791     TIP3     H2       HT       0.417000        1.0080           0
     17905 WT1      5792     TIP3     OH2      OT      -0.834000       15.9994           0
     17906 WT1      5792     TIP3     H1       HT       0.417000        1.0080           0
     17907 WT1      5792     TIP3     H2       HT       0.417000        1.0080           0
     17908 WT1      5793     TIP3     OH2      OT      -0.834000       15.9994           0
     17909 WT1      5793     TIP3     H1       HT       0.417000        1.0080           0
     17910 WT1      5793     TIP3     H2       HT       0.417000        1.0080           0
     17911 WT1      5794     TIP3     OH2      OT      -0.834000       15.9994           0
     17912 WT1      5794     TIP3     H1       HT       0.417000        1.0080           0
     17913 WT1      5794     TIP3     H2       HT       0.417000        1.0080           0
     17914 WT1      5795     TIP3     OH2      OT      -0.834000       15.9994           0
     17915 WT1      5795     TIP3     H1       HT       0.417000        1.0080           0
     17916 WT1      5795     TIP3     H2       HT       0.417000        1.0080           0
     17917 WT1      5796     TIP3     OH2      OT      -0.834000       15.9994           0
     17918 WT1      5796     TIP3     H1       HT       0.417000        1.0080           0
     17919 WT1      5796     TIP3     H2       HT       0.417000        1.0080           0
     17920 WT1      5797     TIP3     OH2      OT      -0.834000       15.9994           0
     17921 WT1      5797     TIP3     H1       HT       0.417000        1.0080           0
     17922 WT1      5797     TIP3     H2       HT       0.417000        1.0080           0
     17923 WT1      5798     TIP3     OH2      OT      -0.834000       15.9994           0
     17924 WT1      5798     TIP3     H1       HT       0.417000        1.0080           0
     17925 WT1      5798     TIP3     H2       HT       0.417000        1.0080           0
     17926 WT1      5799     TIP3     OH2      OT      -0.834000       15.9994           0
     17927 WT1      5799     TIP3     H1       HT       0.417000        1.0080           0
     17928 WT1      5799     TIP3     H2       HT       0.417000        1.0080           0
     17929 WT1      5800     TIP3     OH2      OT      -0.834000       15.9994           0
     17930 WT1      5800     TIP3     H1       HT       0.417000        1.0080           0
     17931 WT1      5800     TIP3     H2       HT       0.417000        1.0080           0
     17932 WT1      5801     TIP3     OH2      OT      -0.834000       15.9994           0
     17933 WT1      5801     TIP3     H1       HT       0.417000        1.0080           0
     17934 WT1      5801     TIP3     H2       HT       0.417000        1.0080           0
     17935 WT1      5802     TIP3     OH2      OT      -0.834000       15.9994           0
     17936 WT1      5802     TIP3     H1       HT       0.417000        1.0080           0
     17937 WT1      5802     TIP3     H2       HT       0.417000        1.0080           0
     17938 WT1      5803     TIP3     OH2      OT      -0.834000       15.9994           0
     17939 WT1      5803     TIP3     H1       HT       0.417000        1.0080           0
     17940 WT1      5803     TIP3     H2       HT       0.417000        1.0080           0
     17941 WT1      5804     TIP3     OH2      OT      -0.834000       15.9994           0
     17942 WT1      5804     TIP3     H1       HT       0.417000        1.0080           0
     17943 WT1      5804     TIP3     H2       HT       0.417000        1.0080           0
     17944 WT1      5805     TIP3     OH2      OT      -0.834000       15.9994           0
     17945 WT1      5805     TIP3     H1       HT       0.417000        1.0080           0
     17946 WT1      5805     TIP3     H2       HT       0.417000        1.0080           0
     17947 WT1      5806     TIP3     OH2      OT      -0.834000       15.9994           0
     17948 WT1      5806     TIP3     H1       HT       0.417000        1.0080           0
     17949 WT1      5806     TIP3     H2       HT       0.417000        1.0080           0
     17950 WT1      5807     TIP3     OH2      OT      -0.834000       15.9994           0
     17951 WT1      5807     TIP3     H1       HT       0.417000        1.0080           0
     17952 WT1      5807     TIP3     H2       HT       0.417000        1.0080           0
     17953 WT1      5808     TIP3     OH2      OT      -0.834000       15.9994           0
     17954 WT1      5808     TIP3     H1       HT       0.417000        1.0080           0
     17955 WT1      5808     TIP3     H2       HT       0.417000        1.0080           0
     17956 WT1      5809     TIP3     OH2      OT      -0.834000       15.9994           0
     17957 WT1      5809     TIP3     H1       HT       0.417000        1.0080           0
     17958 WT1      5809     TIP3     H2       HT       0.417000        1.0080           0
     17959 WT1      5810     TIP3     OH2      OT      -0.834000       15.9994           0
     17960 WT1      5810     TIP3     H1       HT       0.417000        1.0080           0
     17961 WT1      5810     TIP3     H2       HT       0.417000        1.0080           0
     17962 WT1      5811     TIP3     OH2      OT      -0.834000       15.9994           0
     17963 WT1      5811     TIP3     H1       HT       0.417000        1.0080           0
     17964 WT1      5811     TIP3     H2       HT       0.417000        1.0080           0
     17965 WT1      5812     TIP3     OH2      OT      -0.834000       15.9994           0
     17966 WT1      5812     TIP3     H1       HT       0.417000        1.0080           0
     17967 WT1      5812     TIP3     H2       HT       0.417000        1.0080           0
     17968 WT1      5813     TIP3     OH2      OT      -0.834000       15.9994           0
     17969 WT1      5813     TIP3     H1       HT       0.417000        1.0080           0
     17970 WT1      5813     TIP3     H2       HT       0.417000        1.0080           0
     17971 WT1      5814     TIP3     OH2      OT      -0.834000       15.9994           0
     17972 WT1      5814     TIP3     H1       HT       0.417000        1.0080           0
     17973 WT1      5814     TIP3     H2       HT       0.417000        1.0080           0
     17974 WT1      5815     TIP3     OH2      OT      -0.834000       15.9994           0
     17975 WT1      5815     TIP3     H1       HT       0.417000        1.0080           0
     17976 WT1      5815     TIP3     H2       HT       0.417000        1.0080           0
     17977 WT1      5816     TIP3     OH2      OT      -0.834000       15.9994           0
     17978 WT1      5816     TIP3     H1       HT       0.417000        1.0080           0
     17979 WT1      5816     TIP3     H2       HT       0.417000        1.0080           0
     17980 WT1      5817     TIP3     OH2      OT      -0.834000       15.9994           0
     17981 WT1      5817     TIP3     H1       HT       0.417000        1.0080           0
     17982 WT1      5817     TIP3     H2       HT       0.417000        1.0080           0
     17983 WT1      5818     TIP3     OH2      OT      -0.834000       15.9994           0
     17984 WT1      5818     TIP3     H1       HT       0.417000        1.0080           0
     17985 WT1      5818     TIP3     H2       HT       0.417000        1.0080           0
     17986 WT1      5819     TIP3     OH2      OT      -0.834000       15.9994           0
     17987 WT1      5819     TIP3     H1       HT       0.417000        1.0080           0
     17988 WT1      5819     TIP3     H2       HT       0.417000        1.0080           0
     17989 WT1      5820     TIP3     OH2      OT      -0.834000       15.9994           0
     17990 WT1      5820     TIP3     H1       HT       0.417000        1.0080           0
     17991 WT1      5820     TIP3     H2       HT       0.417000        1.0080           0
     17992 WT1      5821     TIP3     OH2      OT      -0.834000       15.9994           0
     17993 WT1      5821     TIP3     H1       HT       0.417000        1.0080           0
     17994 WT1      5821     TIP3     H2       HT       0.417000        1.0080           0
     17995 WT1      5822     TIP3     OH2      OT      -0.834000       15.9994           0
     17996 WT1      5822     TIP3     H1       HT       0.417000        1.0080           0
     17997 WT1      5822     TIP3     H2       HT       0.417000        1.0080           0
     17998 WT1      5823     TIP3     OH2      OT      -0.834000       15.9994           0
     17999 WT1      5823     TIP3     H1       HT       0.417000        1.0080           0
     18000 WT1      5823     TIP3     H2       HT       0.417000        1.0080           0
     18001 WT1      5824     TIP3     OH2      OT      -0.834000       15.9994           0
     18002 WT1      5824     TIP3     H1       HT       0.417000        1.0080           0
     18003 WT1      5824     TIP3     H2       HT       0.417000        1.0080           0
     18004 WT1      5825     TIP3     OH2      OT      -0.834000       15.9994           0
     18005 WT1      5825     TIP3     H1       HT       0.417000        1.0080           0
     18006 WT1      5825     TIP3     H2       HT       0.417000        1.0080           0
     18007 WT1      5826     TIP3     OH2      OT      -0.834000       15.9994           0
     18008 WT1      5826     TIP3     H1       HT       0.417000        1.0080           0
     18009 WT1      5826     TIP3     H2       HT       0.417000        1.0080           0
     18010 WT1      5827     TIP3     OH2      OT      -0.834000       15.9994           0
     18011 WT1      5827     TIP3     H1       HT       0.417000        1.0080           0
     18012 WT1      5827     TIP3     H2       HT       0.417000        1.0080           0
     18013 WT1      5828     TIP3     OH2      OT      -0.834000       15.9994           0
     18014 WT1      5828     TIP3     H1       HT       0.417000        1.0080           0
     18015 WT1      5828     TIP3     H2       HT       0.417000        1.0080           0
     18016 WT1      5829     TIP3     OH2      OT      -0.834000       15.9994           0
     18017 WT1      5829     TIP3     H1       HT       0.417000        1.0080           0
     18018 WT1      5829     TIP3     H2       HT       0.417000        1.0080           0
     18019 WT1      5830     TIP3     OH2      OT      -0.834000       15.9994           0
     18020 WT1      5830     TIP3     H1       HT       0.417000        1.0080           0
     18021 WT1      5830     TIP3     H2       HT       0.417000        1.0080           0
     18022 WT1      5831     TIP3     OH2      OT      -0.834000       15.9994           0
     18023 WT1      5831     TIP3     H1       HT       0.417000        1.0080           0
     18024 WT1      5831     TIP3     H2       HT       0.417000        1.0080           0
     18025 WT1      5832     TIP3     OH2      OT      -0.834000       15.9994           0
     18026 WT1      5832     TIP3     H1       HT       0.417000        1.0080           0
     18027 WT1      5832     TIP3     H2       HT       0.417000        1.0080           0
     18028 WT1      5833     TIP3     OH2      OT      -0.834000       15.9994           0
     18029 WT1      5833     TIP3     H1       HT       0.417000        1.0080           0
     18030 WT1      5833     TIP3     H2       HT       0.417000        1.0080           0
     18031 WT1      5834     TIP3     OH2      OT      -0.834000       15.9994           0
     18032 WT1      5834     TIP3     H1       HT       0.417000        1.0080           0
     18033 WT1      5834     TIP3     H2       HT       0.417000        1.0080           0
     18034 WT1      5835     TIP3     OH2      OT      -0.834000       15.9994           0
     18035 WT1      5835     TIP3     H1       HT       0.417000        1.0080           0
     18036 WT1      5835     TIP3     H2       HT       0.417000        1.0080           0
     18037 WT1      5836     TIP3     OH2      OT      -0.834000       15.9994           0
     18038 WT1      5836     TIP3     H1       HT       0.417000        1.0080           0
     18039 WT1      5836     TIP3     H2       HT       0.417000        1.0080           0
     18040 WT1      5837     TIP3     OH2      OT      -0.834000       15.9994           0
     18041 WT1      5837     TIP3     H1       HT       0.417000        1.0080           0
     18042 WT1      5837     TIP3     H2       HT       0.417000        1.0080           0
     18043 WT1      5838     TIP3     OH2      OT      -0.834000       15.9994           0
     18044 WT1      5838     TIP3     H1       HT       0.417000        1.0080           0
     18045 WT1      5838     TIP3     H2       HT       0.417000        1.0080           0
     18046 WT1      5839     TIP3     OH2      OT      -0.834000       15.9994           0
     18047 WT1      5839     TIP3     H1       HT       0.417000        1.0080           0
     18048 WT1      5839     TIP3     H2       HT       0.417000        1.0080           0
     18049 WT1      5840     TIP3     OH2      OT      -0.834000       15.9994           0
     18050 WT1      5840     TIP3     H1       HT       0.417000        1.0080           0
     18051 WT1      5840     TIP3     H2       HT       0.417000        1.0080           0
     18052 WT1      5841     TIP3     OH2      OT      -0.834000       15.9994           0
     18053 WT1      5841     TIP3     H1       HT       0.417000        1.0080           0
     18054 WT1      5841     TIP3     H2       HT       0.417000        1.0080           0
     18055 WT1      5842     TIP3     OH2      OT      -0.834000       15.9994           0
     18056 WT1      5842     TIP3     H1       HT       0.417000        1.0080           0
     18057 WT1      5842     TIP3     H2       HT       0.417000        1.0080           0
     18058 WT1      5843     TIP3     OH2      OT      -0.834000       15.9994           0
     18059 WT1      5843     TIP3     H1       HT       0.417000        1.0080           0
     18060 WT1      5843     TIP3     H2       HT       0.417000        1.0080           0
     18061 WT1      5844     TIP3     OH2      OT      -0.834000       15.9994           0
     18062 WT1      5844     TIP3     H1       HT       0.417000        1.0080           0
     18063 WT1      5844     TIP3     H2       HT       0.417000        1.0080           0
     18064 WT1      5845     TIP3     OH2      OT      -0.834000       15.9994           0
     18065 WT1      5845     TIP3     H1       HT       0.417000        1.0080           0
     18066 WT1      5845     TIP3     H2       HT       0.417000        1.0080           0
     18067 WT1      5846     TIP3     OH2      OT      -0.834000       15.9994           0
     18068 WT1      5846     TIP3     H1       HT       0.417000        1.0080           0
     18069 WT1      5846     TIP3     H2       HT       0.417000        1.0080           0
     18070 WT1      5847     TIP3     OH2      OT      -0.834000       15.9994           0
     18071 WT1      5847     TIP3     H1       HT       0.417000        1.0080           0
     18072 WT1      5847     TIP3     H2       HT       0.417000        1.0080           0
     18073 WT1      5848     TIP3     OH2      OT      -0.834000       15.9994           0
     18074 WT1      5848     TIP3     H1       HT       0.417000        1.0080           0
     18075 WT1      5848     TIP3     H2       HT       0.417000        1.0080           0
     18076 WT1      5849     TIP3     OH2      OT      -0.834000       15.9994           0
     18077 WT1      5849     TIP3     H1       HT       0.417000        1.0080           0
     18078 WT1      5849     TIP3     H2       HT       0.417000        1.0080           0
     18079 WT1      5850     TIP3     OH2      OT      -0.834000       15.9994           0
     18080 WT1      5850     TIP3     H1       HT       0.417000        1.0080           0
     18081 WT1      5850     TIP3     H2       HT       0.417000        1.0080           0
     18082 WT1      5851     TIP3     OH2      OT      -0.834000       15.9994           0
     18083 WT1      5851     TIP3     H1       HT       0.417000        1.0080           0
     18084 WT1      5851     TIP3     H2       HT       0.417000        1.0080           0
     18085 WT1      5852     TIP3     OH2      OT      -0.834000       15.9994           0
     18086 WT1      5852     TIP3     H1       HT       0.417000        1.0080           0
     18087 WT1      5852     TIP3     H2       HT       0.417000        1.0080           0
     18088 WT1      5853     TIP3     OH2      OT      -0.834000       15.9994           0
     18089 WT1      5853     TIP3     H1       HT       0.417000        1.0080           0
     18090 WT1      5853     TIP3     H2       HT       0.417000        1.0080           0
     18091 WT1      5854     TIP3     OH2      OT      -0.834000       15.9994           0
     18092 WT1      5854     TIP3     H1       HT       0.417000        1.0080           0
     18093 WT1      5854     TIP3     H2       HT       0.417000        1.0080           0
     18094 WT1      5855     TIP3     OH2      OT      -0.834000       15.9994           0
     18095 WT1      5855     TIP3     H1       HT       0.417000        1.0080           0
     18096 WT1      5855     TIP3     H2       HT       0.417000        1.0080           0
     18097 WT1      5856     TIP3     OH2      OT      -0.834000       15.9994           0
     18098 WT1      5856     TIP3     H1       HT       0.417000        1.0080           0
     18099 WT1      5856     TIP3     H2       HT       0.417000        1.0080           0
     18100 WT1      5857     TIP3     OH2      OT      -0.834000       15.9994           0
     18101 WT1      5857     TIP3     H1       HT       0.417000        1.0080           0
     18102 WT1      5857     TIP3     H2       HT       0.417000        1.0080           0
     18103 WT1      5858     TIP3     OH2      OT      -0.834000       15.9994           0
     18104 WT1      5858     TIP3     H1       HT       0.417000        1.0080           0
     18105 WT1      5858     TIP3     H2       HT       0.417000        1.0080           0
     18106 WT1      5859     TIP3     OH2      OT      -0.834000       15.9994           0
     18107 WT1      5859     TIP3     H1       HT       0.417000        1.0080           0
     18108 WT1      5859     TIP3     H2       HT       0.417000        1.0080           0
     18109 WT1      5860     TIP3     OH2      OT      -0.834000       15.9994           0
     18110 WT1      5860     TIP3     H1       HT       0.417000        1.0080           0
     18111 WT1      5860     TIP3     H2       HT       0.417000        1.0080           0
     18112 WT1      5861     TIP3     OH2      OT      -0.834000       15.9994           0
     18113 WT1      5861     TIP3     H1       HT       0.417000        1.0080           0
     18114 WT1      5861     TIP3     H2       HT       0.417000        1.0080           0
     18115 WT1      5862     TIP3     OH2      OT      -0.834000       15.9994           0
     18116 WT1      5862     TIP3     H1       HT       0.417000        1.0080           0
     18117 WT1      5862     TIP3     H2       HT       0.417000        1.0080           0
     18118 WT1      5863     TIP3     OH2      OT      -0.834000       15.9994           0
     18119 WT1      5863     TIP3     H1       HT       0.417000        1.0080           0
     18120 WT1      5863     TIP3     H2       HT       0.417000        1.0080           0
     18121 WT1      5864     TIP3     OH2      OT      -0.834000       15.9994           0
     18122 WT1      5864     TIP3     H1       HT       0.417000        1.0080           0
     18123 WT1      5864     TIP3     H2       HT       0.417000        1.0080           0
     18124 WT1      5865     TIP3     OH2      OT      -0.834000       15.9994           0
     18125 WT1      5865     TIP3     H1       HT       0.417000        1.0080           0
     18126 WT1      5865     TIP3     H2       HT       0.417000        1.0080           0
     18127 WT1      5866     TIP3     OH2      OT      -0.834000       15.9994           0
     18128 WT1      5866     TIP3     H1       HT       0.417000        1.0080           0
     18129 WT1      5866     TIP3     H2       HT       0.417000        1.0080           0
     18130 WT1      5867     TIP3     OH2      OT      -0.834000       15.9994           0
     18131 WT1      5867     TIP3     H1       HT       0.417000        1.0080           0
     18132 WT1      5867     TIP3     H2       HT       0.417000        1.0080           0
     18133 WT1      5868     TIP3     OH2      OT      -0.834000       15.9994           0
     18134 WT1      5868     TIP3     H1       HT       0.417000        1.0080           0
     18135 WT1      5868     TIP3     H2       HT       0.417000        1.0080           0
     18136 WT1      5869     TIP3     OH2      OT      -0.834000       15.9994           0
     18137 WT1      5869     TIP3     H1       HT       0.417000        1.0080           0
     18138 WT1      5869     TIP3     H2       HT       0.417000        1.0080           0
     18139 WT1      5870     TIP3     OH2      OT      -0.834000       15.9994           0
     18140 WT1      5870     TIP3     H1       HT       0.417000        1.0080           0
     18141 WT1      5870     TIP3     H2       HT       0.417000        1.0080           0
     18142 WT1      5871     TIP3     OH2      OT      -0.834000       15.9994           0
     18143 WT1      5871     TIP3     H1       HT       0.417000        1.0080           0
     18144 WT1      5871     TIP3     H2       HT       0.417000        1.0080           0
     18145 WT1      5872     TIP3     OH2      OT      -0.834000       15.9994           0
     18146 WT1      5872     TIP3     H1       HT       0.417000        1.0080           0
     18147 WT1      5872     TIP3     H2       HT       0.417000        1.0080           0
     18148 WT1      5873     TIP3     OH2      OT      -0.834000       15.9994           0
     18149 WT1      5873     TIP3     H1       HT       0.417000        1.0080           0
     18150 WT1      5873     TIP3     H2       HT       0.417000        1.0080           0
     18151 WT1      5874     TIP3     OH2      OT      -0.834000       15.9994           0
     18152 WT1      5874     TIP3     H1       HT       0.417000        1.0080           0
     18153 WT1      5874     TIP3     H2       HT       0.417000        1.0080           0
     18154 WT1      5875     TIP3     OH2      OT      -0.834000       15.9994           0
     18155 WT1      5875     TIP3     H1       HT       0.417000        1.0080           0
     18156 WT1      5875     TIP3     H2       HT       0.417000        1.0080           0
     18157 WT1      5876     TIP3     OH2      OT      -0.834000       15.9994           0
     18158 WT1      5876     TIP3     H1       HT       0.417000        1.0080           0
     18159 WT1      5876     TIP3     H2       HT       0.417000        1.0080           0
     18160 WT1      5877     TIP3     OH2      OT      -0.834000       15.9994           0
     18161 WT1      5877     TIP3     H1       HT       0.417000        1.0080           0
     18162 WT1      5877     TIP3     H2       HT       0.417000        1.0080           0
     18163 WT1      5878     TIP3     OH2      OT      -0.834000       15.9994           0
     18164 WT1      5878     TIP3     H1       HT       0.417000        1.0080           0
     18165 WT1      5878     TIP3     H2       HT       0.417000        1.0080           0
     18166 WT1      5879     TIP3     OH2      OT      -0.834000       15.9994           0
     18167 WT1      5879     TIP3     H1       HT       0.417000        1.0080           0
     18168 WT1      5879     TIP3     H2       HT       0.417000        1.0080           0
     18169 WT1      5880     TIP3     OH2      OT      -0.834000       15.9994           0
     18170 WT1      5880     TIP3     H1       HT       0.417000        1.0080           0
     18171 WT1      5880     TIP3     H2       HT       0.417000        1.0080           0
     18172 WT1      5881     TIP3     OH2      OT      -0.834000       15.9994           0
     18173 WT1      5881     TIP3     H1       HT       0.417000        1.0080           0
     18174 WT1      5881     TIP3     H2       HT       0.417000        1.0080           0
     18175 WT1      5882     TIP3     OH2      OT      -0.834000       15.9994           0
     18176 WT1      5882     TIP3     H1       HT       0.417000        1.0080           0
     18177 WT1      5882     TIP3     H2       HT       0.417000        1.0080           0
     18178 WT1      5883     TIP3     OH2      OT      -0.834000       15.9994           0
     18179 WT1      5883     TIP3     H1       HT       0.417000        1.0080           0
     18180 WT1      5883     TIP3     H2       HT       0.417000        1.0080           0
     18181 WT1      5884     TIP3     OH2      OT      -0.834000       15.9994           0
     18182 WT1      5884     TIP3     H1       HT       0.417000        1.0080           0
     18183 WT1      5884     TIP3     H2       HT       0.417000        1.0080           0
     18184 WT1      5885     TIP3     OH2      OT      -0.834000       15.9994           0
     18185 WT1      5885     TIP3     H1       HT       0.417000        1.0080           0
     18186 WT1      5885     TIP3     H2       HT       0.417000        1.0080           0
     18187 WT1      5886     TIP3     OH2      OT      -0.834000       15.9994           0
     18188 WT1      5886     TIP3     H1       HT       0.417000        1.0080           0
     18189 WT1      5886     TIP3     H2       HT       0.417000        1.0080           0
     18190 WT1      5887     TIP3     OH2      OT      -0.834000       15.9994           0
     18191 WT1      5887     TIP3     H1       HT       0.417000        1.0080           0
     18192 WT1      5887     TIP3     H2       HT       0.417000        1.0080           0
     18193 WT1      5888     TIP3     OH2      OT      -0.834000       15.9994           0
     18194 WT1      5888     TIP3     H1       HT       0.417000        1.0080           0
     18195 WT1      5888     TIP3     H2       HT       0.417000        1.0080           0
     18196 WT1      5889     TIP3     OH2      OT      -0.834000       15.9994           0
     18197 WT1      5889     TIP3     H1       HT       0.417000        1.0080           0
     18198 WT1      5889     TIP3     H2       HT       0.417000        1.0080           0
     18199 WT1      5890     TIP3     OH2      OT      -0.834000       15.9994           0
     18200 WT1      5890     TIP3     H1       HT       0.417000        1.0080           0
     18201 WT1      5890     TIP3     H2       HT       0.417000        1.0080           0
     18202 WT1      5891     TIP3     OH2      OT      -0.834000       15.9994           0
     18203 WT1      5891     TIP3     H1       HT       0.417000        1.0080           0
     18204 WT1      5891     TIP3     H2       HT       0.417000        1.0080           0
     18205 WT1      5892     TIP3     OH2      OT      -0.834000       15.9994           0
     18206 WT1      5892     TIP3     H1       HT       0.417000        1.0080           0
     18207 WT1      5892     TIP3     H2       HT       0.417000        1.0080           0
     18208 WT1      5893     TIP3     OH2      OT      -0.834000       15.9994           0
     18209 WT1      5893     TIP3     H1       HT       0.417000        1.0080           0
     18210 WT1      5893     TIP3     H2       HT       0.417000        1.0080           0
     18211 WT1      5894     TIP3     OH2      OT      -0.834000       15.9994           0
     18212 WT1      5894     TIP3     H1       HT       0.417000        1.0080           0
     18213 WT1      5894     TIP3     H2       HT       0.417000        1.0080           0
     18214 WT1      5895     TIP3     OH2      OT      -0.834000       15.9994           0
     18215 WT1      5895     TIP3     H1       HT       0.417000        1.0080           0
     18216 WT1      5895     TIP3     H2       HT       0.417000        1.0080           0
     18217 WT1      5896     TIP3     OH2      OT      -0.834000       15.9994           0
     18218 WT1      5896     TIP3     H1       HT       0.417000        1.0080           0
     18219 WT1      5896     TIP3     H2       HT       0.417000        1.0080           0
     18220 WT1      5897     TIP3     OH2      OT      -0.834000       15.9994           0
     18221 WT1      5897     TIP3     H1       HT       0.417000        1.0080           0
     18222 WT1      5897     TIP3     H2       HT       0.417000        1.0080           0
     18223 WT1      5898     TIP3     OH2      OT      -0.834000       15.9994           0
     18224 WT1      5898     TIP3     H1       HT       0.417000        1.0080           0
     18225 WT1      5898     TIP3     H2       HT       0.417000        1.0080           0
     18226 WT1      5899     TIP3     OH2      OT      -0.834000       15.9994           0
     18227 WT1      5899     TIP3     H1       HT       0.417000        1.0080           0
     18228 WT1      5899     TIP3     H2       HT       0.417000        1.0080           0
     18229 WT1      5900     TIP3     OH2      OT      -0.834000       15.9994           0
     18230 WT1      5900     TIP3     H1       HT       0.417000        1.0080           0
     18231 WT1      5900     TIP3     H2       HT       0.417000        1.0080           0
     18232 WT1      5901     TIP3     OH2      OT      -0.834000       15.9994           0
     18233 WT1      5901     TIP3     H1       HT       0.417000        1.0080           0
     18234 WT1      5901     TIP3     H2       HT       0.417000        1.0080           0
     18235 WT1      5902     TIP3     OH2      OT      -0.834000       15.9994           0
     18236 WT1      5902     TIP3     H1       HT       0.417000        1.0080           0
     18237 WT1      5902     TIP3     H2       HT       0.417000        1.0080           0
     18238 WT1      5903     TIP3     OH2      OT      -0.834000       15.9994           0
     18239 WT1      5903     TIP3     H1       HT       0.417000        1.0080           0
     18240 WT1      5903     TIP3     H2       HT       0.417000        1.0080           0
     18241 WT1      5904     TIP3     OH2      OT      -0.834000       15.9994           0
     18242 WT1      5904     TIP3     H1       HT       0.417000        1.0080           0
     18243 WT1      5904     TIP3     H2       HT       0.417000        1.0080           0
     18244 WT1      5906     TIP3     OH2      OT      -0.834000       15.9994           0
     18245 WT1      5906     TIP3     H1       HT       0.417000        1.0080           0
     18246 WT1      5906     TIP3     H2       HT       0.417000        1.0080           0
     18247 WT1      5907     TIP3     OH2      OT      -0.834000       15.9994           0
     18248 WT1      5907     TIP3     H1       HT       0.417000        1.0080           0
     18249 WT1      5907     TIP3     H2       HT       0.417000        1.0080           0
     18250 WT1      5908     TIP3     OH2      OT      -0.834000       15.9994           0
     18251 WT1      5908     TIP3     H1       HT       0.417000        1.0080           0
     18252 WT1      5908     TIP3     H2       HT       0.417000        1.0080           0
     18253 WT1      5909     TIP3     OH2      OT      -0.834000       15.9994           0
     18254 WT1      5909     TIP3     H1       HT       0.417000        1.0080           0
     18255 WT1      5909     TIP3     H2       HT       0.417000        1.0080           0
     18256 WT1      5910     TIP3     OH2      OT      -0.834000       15.9994           0
     18257 WT1      5910     TIP3     H1       HT       0.417000        1.0080           0
     18258 WT1      5910     TIP3     H2       HT       0.417000        1.0080           0
     18259 WT1      5911     TIP3     OH2      OT      -0.834000       15.9994           0
     18260 WT1      5911     TIP3     H1       HT       0.417000        1.0080           0
     18261 WT1      5911     TIP3     H2       HT       0.417000        1.0080           0
     18262 WT1      5912     TIP3     OH2      OT      -0.834000       15.9994           0
     18263 WT1      5912     TIP3     H1       HT       0.417000        1.0080           0
     18264 WT1      5912     TIP3     H2       HT       0.417000        1.0080           0
     18265 WT1      5913     TIP3     OH2      OT      -0.834000       15.9994           0
     18266 WT1      5913     TIP3     H1       HT       0.417000        1.0080           0
     18267 WT1      5913     TIP3     H2       HT       0.417000        1.0080           0
     18268 WT1      5914     TIP3     OH2      OT      -0.834000       15.9994           0
     18269 WT1      5914     TIP3     H1       HT       0.417000        1.0080           0
     18270 WT1      5914     TIP3     H2       HT       0.417000        1.0080           0
     18271 WT1      5915     TIP3     OH2      OT      -0.834000       15.9994           0
     18272 WT1      5915     TIP3     H1       HT       0.417000        1.0080           0
     18273 WT1      5915     TIP3     H2       HT       0.417000        1.0080           0
     18274 WT1      5916     TIP3     OH2      OT      -0.834000       15.9994           0
     18275 WT1      5916     TIP3     H1       HT       0.417000        1.0080           0
     18276 WT1      5916     TIP3     H2       HT       0.417000        1.0080           0
     18277 WT1      5917     TIP3     OH2      OT      -0.834000       15.9994           0
     18278 WT1      5917     TIP3     H1       HT       0.417000        1.0080           0
     18279 WT1      5917     TIP3     H2       HT       0.417000        1.0080           0
     18280 WT1      5918     TIP3     OH2      OT      -0.834000       15.9994           0
     18281 WT1      5918     TIP3     H1       HT       0.417000        1.0080           0
     18282 WT1      5918     TIP3     H2       HT       0.417000        1.0080           0
     18283 WT1      5919     TIP3     OH2      OT      -0.834000       15.9994           0
     18284 WT1      5919     TIP3     H1       HT       0.417000        1.0080           0
     18285 WT1      5919     TIP3     H2       HT       0.417000        1.0080           0
     18286 WT1      5920     TIP3     OH2      OT      -0.834000       15.9994           0
     18287 WT1      5920     TIP3     H1       HT       0.417000        1.0080           0
     18288 WT1      5920     TIP3     H2       HT       0.417000        1.0080           0
     18289 WT1      5921     TIP3     OH2      OT      -0.834000       15.9994           0
     18290 WT1      5921     TIP3     H1       HT       0.417000        1.0080           0
     18291 WT1      5921     TIP3     H2       HT       0.417000        1.0080           0
     18292 WT1      5922     TIP3     OH2      OT      -0.834000       15.9994           0
     18293 WT1      5922     TIP3     H1       HT       0.417000        1.0080           0
     18294 WT1      5922     TIP3     H2       HT       0.417000        1.0080           0
     18295 WT1      5923     TIP3     OH2      OT      -0.834000       15.9994           0
     18296 WT1      5923     TIP3     H1       HT       0.417000        1.0080           0
     18297 WT1      5923     TIP3     H2       HT       0.417000        1.0080           0
     18298 WT1      5924     TIP3     OH2      OT      -0.834000       15.9994           0
     18299 WT1      5924     TIP3     H1       HT       0.417000        1.0080           0
     18300 WT1      5924     TIP3     H2       HT       0.417000        1.0080           0
     18301 WT1      5925     TIP3     OH2      OT      -0.834000       15.9994           0
     18302 WT1      5925     TIP3     H1       HT       0.417000        1.0080           0
     18303 WT1      5925     TIP3     H2       HT       0.417000        1.0080           0
     18304 WT1      5926     TIP3     OH2      OT      -0.834000       15.9994           0
     18305 WT1      5926     TIP3     H1       HT       0.417000        1.0080           0
     18306 WT1      5926     TIP3     H2       HT       0.417000        1.0080           0
     18307 WT1      5927     TIP3     OH2      OT      -0.834000       15.9994           0
     18308 WT1      5927     TIP3     H1       HT       0.417000        1.0080           0
     18309 WT1      5927     TIP3     H2       HT       0.417000        1.0080           0
     18310 WT1      5928     TIP3     OH2      OT      -0.834000       15.9994           0
     18311 WT1      5928     TIP3     H1       HT       0.417000        1.0080           0
     18312 WT1      5928     TIP3     H2       HT       0.417000        1.0080           0
     18313 WT1      5929     TIP3     OH2      OT      -0.834000       15.9994           0
     18314 WT1      5929     TIP3     H1       HT       0.417000        1.0080           0
     18315 WT1      5929     TIP3     H2       HT       0.417000        1.0080           0
     18316 WT1      5930     TIP3     OH2      OT      -0.834000       15.9994           0
     18317 WT1      5930     TIP3     H1       HT       0.417000        1.0080           0
     18318 WT1      5930     TIP3     H2       HT       0.417000        1.0080           0
     18319 WT1      5931     TIP3     OH2      OT      -0.834000       15.9994           0
     18320 WT1      5931     TIP3     H1       HT       0.417000        1.0080           0
     18321 WT1      5931     TIP3     H2       HT       0.417000        1.0080           0
     18322 WT1      5932     TIP3     OH2      OT      -0.834000       15.9994           0
     18323 WT1      5932     TIP3     H1       HT       0.417000        1.0080           0
     18324 WT1      5932     TIP3     H2       HT       0.417000        1.0080           0
     18325 WT1      5933     TIP3     OH2      OT      -0.834000       15.9994           0
     18326 WT1      5933     TIP3     H1       HT       0.417000        1.0080           0
     18327 WT1      5933     TIP3     H2       HT       0.417000        1.0080           0
     18328 WT1      5934     TIP3     OH2      OT      -0.834000       15.9994           0
     18329 WT1      5934     TIP3     H1       HT       0.417000        1.0080           0
     18330 WT1      5934     TIP3     H2       HT       0.417000        1.0080           0
     18331 WT1      5935     TIP3     OH2      OT      -0.834000       15.9994           0
     18332 WT1      5935     TIP3     H1       HT       0.417000        1.0080           0
     18333 WT1      5935     TIP3     H2       HT       0.417000        1.0080           0
     18334 WT1      5936     TIP3     OH2      OT      -0.834000       15.9994           0
     18335 WT1      5936     TIP3     H1       HT       0.417000        1.0080           0
     18336 WT1      5936     TIP3     H2       HT       0.417000        1.0080           0
     18337 WT1      5937     TIP3     OH2      OT      -0.834000       15.9994           0
     18338 WT1      5937     TIP3     H1       HT       0.417000        1.0080           0
     18339 WT1      5937     TIP3     H2       HT       0.417000        1.0080           0
     18340 WT1      5938     TIP3     OH2      OT      -0.834000       15.9994           0
     18341 WT1      5938     TIP3     H1       HT       0.417000        1.0080           0
     18342 WT1      5938     TIP3     H2       HT       0.417000        1.0080           0
     18343 WT1      5939     TIP3     OH2      OT      -0.834000       15.9994           0
     18344 WT1      5939     TIP3     H1       HT       0.417000        1.0080           0
     18345 WT1      5939     TIP3     H2       HT       0.417000        1.0080           0
     18346 WT1      5940     TIP3     OH2      OT      -0.834000       15.9994           0
     18347 WT1      5940     TIP3     H1       HT       0.417000        1.0080           0
     18348 WT1      5940     TIP3     H2       HT       0.417000        1.0080           0
     18349 WT1      5941     TIP3     OH2      OT      -0.834000       15.9994           0
     18350 WT1      5941     TIP3     H1       HT       0.417000        1.0080           0
     18351 WT1      5941     TIP3     H2       HT       0.417000        1.0080           0
     18352 WT1      5942     TIP3     OH2      OT      -0.834000       15.9994           0
     18353 WT1      5942     TIP3     H1       HT       0.417000        1.0080           0
     18354 WT1      5942     TIP3     H2       HT       0.417000        1.0080           0
     18355 WT1      5943     TIP3     OH2      OT      -0.834000       15.9994           0
     18356 WT1      5943     TIP3     H1       HT       0.417000        1.0080           0
     18357 WT1      5943     TIP3     H2       HT       0.417000        1.0080           0
     18358 WT1      5944     TIP3     OH2      OT      -0.834000       15.9994           0
     18359 WT1      5944     TIP3     H1       HT       0.417000        1.0080           0
     18360 WT1      5944     TIP3     H2       HT       0.417000        1.0080           0
     18361 WT1      5945     TIP3     OH2      OT      -0.834000       15.9994           0
     18362 WT1      5945     TIP3     H1       HT       0.417000        1.0080           0
     18363 WT1      5945     TIP3     H2       HT       0.417000        1.0080           0
     18364 WT1      5946     TIP3     OH2      OT      -0.834000       15.9994           0
     18365 WT1      5946     TIP3     H1       HT       0.417000        1.0080           0
     18366 WT1      5946     TIP3     H2       HT       0.417000        1.0080           0
     18367 WT1      5947     TIP3     OH2      OT      -0.834000       15.9994           0
     18368 WT1      5947     TIP3     H1       HT       0.417000        1.0080           0
     18369 WT1      5947     TIP3     H2       HT       0.417000        1.0080           0
     18370 WT1      5948     TIP3     OH2      OT      -0.834000       15.9994           0
     18371 WT1      5948     TIP3     H1       HT       0.417000        1.0080           0
     18372 WT1      5948     TIP3     H2       HT       0.417000        1.0080           0
     18373 WT1      5949     TIP3     OH2      OT      -0.834000       15.9994           0
     18374 WT1      5949     TIP3     H1       HT       0.417000        1.0080           0
     18375 WT1      5949     TIP3     H2       HT       0.417000        1.0080           0
     18376 WT1      5950     TIP3     OH2      OT      -0.834000       15.9994           0
     18377 WT1      5950     TIP3     H1       HT       0.417000        1.0080           0
     18378 WT1      5950     TIP3     H2       HT       0.417000        1.0080           0
     18379 WT1      5951     TIP3     OH2      OT      -0.834000       15.9994           0
     18380 WT1      5951     TIP3     H1       HT       0.417000        1.0080           0
     18381 WT1      5951     TIP3     H2       HT       0.417000        1.0080           0
     18382 WT1      5952     TIP3     OH2      OT      -0.834000       15.9994           0
     18383 WT1      5952     TIP3     H1       HT       0.417000        1.0080           0
     18384 WT1      5952     TIP3     H2       HT       0.417000        1.0080           0
     18385 WT1      5953     TIP3     OH2      OT      -0.834000       15.9994           0
     18386 WT1      5953     TIP3     H1       HT       0.417000        1.0080           0
     18387 WT1      5953     TIP3     H2       HT       0.417000        1.0080           0
     18388 WT1      5954     TIP3     OH2      OT      -0.834000       15.9994           0
     18389 WT1      5954     TIP3     H1       HT       0.417000        1.0080           0
     18390 WT1      5954     TIP3     H2       HT       0.417000        1.0080           0
     18391 WT1      5955     TIP3     OH2      OT      -0.834000       15.9994           0
     18392 WT1      5955     TIP3     H1       HT       0.417000        1.0080           0
     18393 WT1      5955     TIP3     H2       HT       0.417000        1.0080           0
     18394 WT1      5956     TIP3     OH2      OT      -0.834000       15.9994           0
     18395 WT1      5956     TIP3     H1       HT       0.417000        1.0080           0
     18396 WT1      5956     TIP3     H2       HT       0.417000        1.0080           0
     18397 WT1      5957     TIP3     OH2      OT      -0.834000       15.9994           0
     18398 WT1      5957     TIP3     H1       HT       0.417000        1.0080           0
     18399 WT1      5957     TIP3     H2       HT       0.417000        1.0080           0
     18400 WT1      5958     TIP3     OH2      OT      -0.834000       15.9994           0
     18401 WT1      5958     TIP3     H1       HT       0.417000        1.0080           0
     18402 WT1      5958     TIP3     H2       HT       0.417000        1.0080           0
     18403 WT1      5959     TIP3     OH2      OT      -0.834000       15.9994           0
     18404 WT1      5959     TIP3     H1       HT       0.417000        1.0080           0
     18405 WT1      5959     TIP3     H2       HT       0.417000        1.0080           0
     18406 WT1      5960     TIP3     OH2      OT      -0.834000       15.9994           0
     18407 WT1      5960     TIP3     H1       HT       0.417000        1.0080           0
     18408 WT1      5960     TIP3     H2       HT       0.417000        1.0080           0
     18409 WT1      5961     TIP3     OH2      OT      -0.834000       15.9994           0
     18410 WT1      5961     TIP3     H1       HT       0.417000        1.0080           0
     18411 WT1      5961     TIP3     H2       HT       0.417000        1.0080           0
     18412 WT1      5962     TIP3     OH2      OT      -0.834000       15.9994           0
     18413 WT1      5962     TIP3     H1       HT       0.417000        1.0080           0
     18414 WT1      5962     TIP3     H2       HT       0.417000        1.0080           0
     18415 WT1      5963     TIP3     OH2      OT      -0.834000       15.9994           0
     18416 WT1      5963     TIP3     H1       HT       0.417000        1.0080           0
     18417 WT1      5963     TIP3     H2       HT       0.417000        1.0080           0
     18418 WT1      5965     TIP3     OH2      OT      -0.834000       15.9994           0
     18419 WT1      5965     TIP3     H1       HT       0.417000        1.0080           0
     18420 WT1      5965     TIP3     H2       HT       0.417000        1.0080           0
     18421 WT1      5966     TIP3     OH2      OT      -0.834000       15.9994           0
     18422 WT1      5966     TIP3     H1       HT       0.417000        1.0080           0
     18423 WT1      5966     TIP3     H2       HT       0.417000        1.0080           0
     18424 WT1      5967     TIP3     OH2      OT      -0.834000       15.9994           0
     18425 WT1      5967     TIP3     H1       HT       0.417000        1.0080           0
     18426 WT1      5967     TIP3     H2       HT       0.417000        1.0080           0
     18427 WT1      5968     TIP3     OH2      OT      -0.834000       15.9994           0
     18428 WT1      5968     TIP3     H1       HT       0.417000        1.0080           0
     18429 WT1      5968     TIP3     H2       HT       0.417000        1.0080           0
     18430 WT1      5969     TIP3     OH2      OT      -0.834000       15.9994           0
     18431 WT1      5969     TIP3     H1       HT       0.417000        1.0080           0
     18432 WT1      5969     TIP3     H2       HT       0.417000        1.0080           0
     18433 WT1      5970     TIP3     OH2      OT      -0.834000       15.9994           0
     18434 WT1      5970     TIP3     H1       HT       0.417000        1.0080           0
     18435 WT1      5970     TIP3     H2       HT       0.417000        1.0080           0
     18436 WT1      5971     TIP3     OH2      OT      -0.834000       15.9994           0
     18437 WT1      5971     TIP3     H1       HT       0.417000        1.0080           0
     18438 WT1      5971     TIP3     H2       HT       0.417000        1.0080           0
     18439 WT1      5972     TIP3     OH2      OT      -0.834000       15.9994           0
     18440 WT1      5972     TIP3     H1       HT       0.417000        1.0080           0
     18441 WT1      5972     TIP3     H2       HT       0.417000        1.0080           0
     18442 WT1      5973     TIP3     OH2      OT      -0.834000       15.9994           0
     18443 WT1      5973     TIP3     H1       HT       0.417000        1.0080           0
     18444 WT1      5973     TIP3     H2       HT       0.417000        1.0080           0
     18445 WT1      5974     TIP3     OH2      OT      -0.834000       15.9994           0
     18446 WT1      5974     TIP3     H1       HT       0.417000        1.0080           0
     18447 WT1      5974     TIP3     H2       HT       0.417000        1.0080           0
     18448 WT1      5975     TIP3     OH2      OT      -0.834000       15.9994           0
     18449 WT1      5975     TIP3     H1       HT       0.417000        1.0080           0
     18450 WT1      5975     TIP3     H2       HT       0.417000        1.0080           0
     18451 WT1      5976     TIP3     OH2      OT      -0.834000       15.9994           0
     18452 WT1      5976     TIP3     H1       HT       0.417000        1.0080           0
     18453 WT1      5976     TIP3     H2       HT       0.417000        1.0080           0
     18454 WT1      5977     TIP3     OH2      OT      -0.834000       15.9994           0
     18455 WT1      5977     TIP3     H1       HT       0.417000        1.0080           0
     18456 WT1      5977     TIP3     H2       HT       0.417000        1.0080           0
     18457 WT1      5978     TIP3     OH2      OT      -0.834000       15.9994           0
     18458 WT1      5978     TIP3     H1       HT       0.417000        1.0080           0
     18459 WT1      5978     TIP3     H2       HT       0.417000        1.0080           0
     18460 WT1      5979     TIP3     OH2      OT      -0.834000       15.9994           0
     18461 WT1      5979     TIP3     H1       HT       0.417000        1.0080           0
     18462 WT1      5979     TIP3     H2       HT       0.417000        1.0080           0
     18463 WT1      5980     TIP3     OH2      OT      -0.834000       15.9994           0
     18464 WT1      5980     TIP3     H1       HT       0.417000        1.0080           0
     18465 WT1      5980     TIP3     H2       HT       0.417000        1.0080           0
     18466 WT1      5981     TIP3     OH2      OT      -0.834000       15.9994           0
     18467 WT1      5981     TIP3     H1       HT       0.417000        1.0080           0
     18468 WT1      5981     TIP3     H2       HT       0.417000        1.0080           0
     18469 WT1      5982     TIP3     OH2      OT      -0.834000       15.9994           0
     18470 WT1      5982     TIP3     H1       HT       0.417000        1.0080           0
     18471 WT1      5982     TIP3     H2       HT       0.417000        1.0080           0
     18472 WT1      5983     TIP3     OH2      OT      -0.834000       15.9994           0
     18473 WT1      5983     TIP3     H1       HT       0.417000        1.0080           0
     18474 WT1      5983     TIP3     H2       HT       0.417000        1.0080           0
     18475 WT1      5984     TIP3     OH2      OT      -0.834000       15.9994           0
     18476 WT1      5984     TIP3     H1       HT       0.417000        1.0080           0
     18477 WT1      5984     TIP3     H2       HT       0.417000        1.0080           0
     18478 WT1      5985     TIP3     OH2      OT      -0.834000       15.9994           0
     18479 WT1      5985     TIP3     H1       HT       0.417000        1.0080           0
     18480 WT1      5985     TIP3     H2       HT       0.417000        1.0080           0
     18481 WT1      5986     TIP3     OH2      OT      -0.834000       15.9994           0
     18482 WT1      5986     TIP3     H1       HT       0.417000        1.0080           0
     18483 WT1      5986     TIP3     H2       HT       0.417000        1.0080           0
     18484 WT1      5987     TIP3     OH2      OT      -0.834000       15.9994           0
     18485 WT1      5987     TIP3     H1       HT       0.417000        1.0080           0
     18486 WT1      5987     TIP3     H2       HT       0.417000        1.0080           0
     18487 WT1      5988     TIP3     OH2      OT      -0.834000       15.9994           0
     18488 WT1      5988     TIP3     H1       HT       0.417000        1.0080           0
     18489 WT1      5988     TIP3     H2       HT       0.417000        1.0080           0
     18490 WT1      5989     TIP3     OH2      OT      -0.834000       15.9994           0
     18491 WT1      5989     TIP3     H1       HT       0.417000        1.0080           0
     18492 WT1      5989     TIP3     H2       HT       0.417000        1.0080           0
     18493 WT1      5990     TIP3     OH2      OT      -0.834000       15.9994           0
     18494 WT1      5990     TIP3     H1       HT       0.417000        1.0080           0
     18495 WT1      5990     TIP3     H2       HT       0.417000        1.0080           0
     18496 WT1      5991     TIP3     OH2      OT      -0.834000       15.9994           0
     18497 WT1      5991     TIP3     H1       HT       0.417000        1.0080           0
     18498 WT1      5991     TIP3     H2       HT       0.417000        1.0080           0
     18499 WT1      5992     TIP3     OH2      OT      -0.834000       15.9994           0
     18500 WT1      5992     TIP3     H1       HT       0.417000        1.0080           0
     18501 WT1      5992     TIP3     H2       HT       0.417000        1.0080           0
     18502 WT1      5993     TIP3     OH2      OT      -0.834000       15.9994           0
     18503 WT1      5993     TIP3     H1       HT       0.417000        1.0080           0
     18504 WT1      5993     TIP3     H2       HT       0.417000        1.0080           0
     18505 WT1      5994     TIP3     OH2      OT      -0.834000       15.9994           0
     18506 WT1      5994     TIP3     H1       HT       0.417000        1.0080           0
     18507 WT1      5994     TIP3     H2       HT       0.417000        1.0080           0
     18508 WT1      5995     TIP3     OH2      OT      -0.834000       15.9994           0
     18509 WT1      5995     TIP3     H1       HT       0.417000        1.0080           0
     18510 WT1      5995     TIP3     H2       HT       0.417000        1.0080           0
     18511 WT1      5996     TIP3     OH2      OT      -0.834000       15.9994           0
     18512 WT1      5996     TIP3     H1       HT       0.417000        1.0080           0
     18513 WT1      5996     TIP3     H2       HT       0.417000        1.0080           0
     18514 WT1      5997     TIP3     OH2      OT      -0.834000       15.9994           0
     18515 WT1      5997     TIP3     H1       HT       0.417000        1.0080           0
     18516 WT1      5997     TIP3     H2       HT       0.417000        1.0080           0
     18517 WT1      5998     TIP3     OH2      OT      -0.834000       15.9994           0
     18518 WT1      5998     TIP3     H1       HT       0.417000        1.0080           0
     18519 WT1      5998     TIP3     H2       HT       0.417000        1.0080           0
     18520 WT1      5999     TIP3     OH2      OT      -0.834000       15.9994           0
     18521 WT1      5999     TIP3     H1       HT       0.417000        1.0080           0
     18522 WT1      5999     TIP3     H2       HT       0.417000        1.0080           0
     18523 WT1      6000     TIP3     OH2      OT      -0.834000       15.9994           0
     18524 WT1      6000     TIP3     H1       HT       0.417000        1.0080           0
     18525 WT1      6000     TIP3     H2       HT       0.417000        1.0080           0
     18526 WT1      6001     TIP3     OH2      OT      -0.834000       15.9994           0
     18527 WT1      6001     TIP3     H1       HT       0.417000        1.0080           0
     18528 WT1      6001     TIP3     H2       HT       0.417000        1.0080           0
     18529 WT1      6002     TIP3     OH2      OT      -0.834000       15.9994           0
     18530 WT1      6002     TIP3     H1       HT       0.417000        1.0080           0
     18531 WT1      6002     TIP3     H2       HT       0.417000        1.0080           0
     18532 WT1      6003     TIP3     OH2      OT      -0.834000       15.9994           0
     18533 WT1      6003     TIP3     H1       HT       0.417000        1.0080           0
     18534 WT1      6003     TIP3     H2       HT       0.417000        1.0080           0
     18535 WT1      6004     TIP3     OH2      OT      -0.834000       15.9994           0
     18536 WT1      6004     TIP3     H1       HT       0.417000        1.0080           0
     18537 WT1      6004     TIP3     H2       HT       0.417000        1.0080           0
     18538 WT1      6005     TIP3     OH2      OT      -0.834000       15.9994           0
     18539 WT1      6005     TIP3     H1       HT       0.417000        1.0080           0
     18540 WT1      6005     TIP3     H2       HT       0.417000        1.0080           0
     18541 WT1      6006     TIP3     OH2      OT      -0.834000       15.9994           0
     18542 WT1      6006     TIP3     H1       HT       0.417000        1.0080           0
     18543 WT1      6006     TIP3     H2       HT       0.417000        1.0080           0
     18544 WT1      6007     TIP3     OH2      OT      -0.834000       15.9994           0
     18545 WT1      6007     TIP3     H1       HT       0.417000        1.0080           0
     18546 WT1      6007     TIP3     H2       HT       0.417000        1.0080           0
     18547 WT1      6008     TIP3     OH2      OT      -0.834000       15.9994           0
     18548 WT1      6008     TIP3     H1       HT       0.417000        1.0080           0
     18549 WT1      6008     TIP3     H2       HT       0.417000        1.0080           0
     18550 WT1      6009     TIP3     OH2      OT      -0.834000       15.9994           0
     18551 WT1      6009     TIP3     H1       HT       0.417000        1.0080           0
     18552 WT1      6009     TIP3     H2       HT       0.417000        1.0080           0
     18553 WT1      6010     TIP3     OH2      OT      -0.834000       15.9994           0
     18554 WT1      6010     TIP3     H1       HT       0.417000        1.0080           0
     18555 WT1      6010     TIP3     H2       HT       0.417000        1.0080           0
     18556 WT1      6011     TIP3     OH2      OT      -0.834000       15.9994           0
     18557 WT1      6011     TIP3     H1       HT       0.417000        1.0080           0
     18558 WT1      6011     TIP3     H2       HT       0.417000        1.0080           0
     18559 WT1      6012     TIP3     OH2      OT      -0.834000       15.9994           0
     18560 WT1      6012     TIP3     H1       HT       0.417000        1.0080           0
     18561 WT1      6012     TIP3     H2       HT       0.417000        1.0080           0
     18562 WT1      6013     TIP3     OH2      OT      -0.834000       15.9994           0
     18563 WT1      6013     TIP3     H1       HT       0.417000        1.0080           0
     18564 WT1      6013     TIP3     H2       HT       0.417000        1.0080           0
     18565 WT1      6014     TIP3     OH2      OT      -0.834000       15.9994           0
     18566 WT1      6014     TIP3     H1       HT       0.417000        1.0080           0
     18567 WT1      6014     TIP3     H2       HT       0.417000        1.0080           0
     18568 WT1      6015     TIP3     OH2      OT      -0.834000       15.9994           0
     18569 WT1      6015     TIP3     H1       HT       0.417000        1.0080           0
     18570 WT1      6015     TIP3     H2       HT       0.417000        1.0080           0
     18571 WT1      6016     TIP3     OH2      OT      -0.834000       15.9994           0
     18572 WT1      6016     TIP3     H1       HT       0.417000        1.0080           0
     18573 WT1      6016     TIP3     H2       HT       0.417000        1.0080           0
     18574 WT1      6017     TIP3     OH2      OT      -0.834000       15.9994           0
     18575 WT1      6017     TIP3     H1       HT       0.417000        1.0080           0
     18576 WT1      6017     TIP3     H2       HT       0.417000        1.0080           0
     18577 WT1      6018     TIP3     OH2      OT      -0.834000       15.9994           0
     18578 WT1      6018     TIP3     H1       HT       0.417000        1.0080           0
     18579 WT1      6018     TIP3     H2       HT       0.417000        1.0080           0
     18580 WT1      6019     TIP3     OH2      OT      -0.834000       15.9994           0
     18581 WT1      6019     TIP3     H1       HT       0.417000        1.0080           0
     18582 WT1      6019     TIP3     H2       HT       0.417000        1.0080           0
     18583 WT1      6020     TIP3     OH2      OT      -0.834000       15.9994           0
     18584 WT1      6020     TIP3     H1       HT       0.417000        1.0080           0
     18585 WT1      6020     TIP3     H2       HT       0.417000        1.0080           0
     18586 WT1      6021     TIP3     OH2      OT      -0.834000       15.9994           0
     18587 WT1      6021     TIP3     H1       HT       0.417000        1.0080           0
     18588 WT1      6021     TIP3     H2       HT       0.417000        1.0080           0
     18589 WT1      6022     TIP3     OH2      OT      -0.834000       15.9994           0
     18590 WT1      6022     TIP3     H1       HT       0.417000        1.0080           0
     18591 WT1      6022     TIP3     H2       HT       0.417000        1.0080           0
     18592 WT1      6023     TIP3     OH2      OT      -0.834000       15.9994           0
     18593 WT1      6023     TIP3     H1       HT       0.417000        1.0080           0
     18594 WT1      6023     TIP3     H2       HT       0.417000        1.0080           0
     18595 WT1      6024     TIP3     OH2      OT      -0.834000       15.9994           0
     18596 WT1      6024     TIP3     H1       HT       0.417000        1.0080           0
     18597 WT1      6024     TIP3     H2       HT       0.417000        1.0080           0
     18598 WT1      6025     TIP3     OH2      OT      -0.834000       15.9994           0
     18599 WT1      6025     TIP3     H1       HT       0.417000        1.0080           0
     18600 WT1      6025     TIP3     H2       HT       0.417000        1.0080           0
     18601 WT1      6026     TIP3     OH2      OT      -0.834000       15.9994           0
     18602 WT1      6026     TIP3     H1       HT       0.417000        1.0080           0
     18603 WT1      6026     TIP3     H2       HT       0.417000        1.0080           0
     18604 WT1      6027     TIP3     OH2      OT      -0.834000       15.9994           0
     18605 WT1      6027     TIP3     H1       HT       0.417000        1.0080           0
     18606 WT1      6027     TIP3     H2       HT       0.417000        1.0080           0
     18607 WT1      6028     TIP3     OH2      OT      -0.834000       15.9994           0
     18608 WT1      6028     TIP3     H1       HT       0.417000        1.0080           0
     18609 WT1      6028     TIP3     H2       HT       0.417000        1.0080           0
     18610 WT1      6030     TIP3     OH2      OT      -0.834000       15.9994           0
     18611 WT1      6030     TIP3     H1       HT       0.417000        1.0080           0
     18612 WT1      6030     TIP3     H2       HT       0.417000        1.0080           0
     18613 WT1      6031     TIP3     OH2      OT      -0.834000       15.9994           0
     18614 WT1      6031     TIP3     H1       HT       0.417000        1.0080           0
     18615 WT1      6031     TIP3     H2       HT       0.417000        1.0080           0
     18616 WT1      6032     TIP3     OH2      OT      -0.834000       15.9994           0
     18617 WT1      6032     TIP3     H1       HT       0.417000        1.0080           0
     18618 WT1      6032     TIP3     H2       HT       0.417000        1.0080           0
     18619 WT1      6033     TIP3     OH2      OT      -0.834000       15.9994           0
     18620 WT1      6033     TIP3     H1       HT       0.417000        1.0080           0
     18621 WT1      6033     TIP3     H2       HT       0.417000        1.0080           0
     18622 WT1      6034     TIP3     OH2      OT      -0.834000       15.9994           0
     18623 WT1      6034     TIP3     H1       HT       0.417000        1.0080           0
     18624 WT1      6034     TIP3     H2       HT       0.417000        1.0080           0
     18625 WT1      6035     TIP3     OH2      OT      -0.834000       15.9994           0
     18626 WT1      6035     TIP3     H1       HT       0.417000        1.0080           0
     18627 WT1      6035     TIP3     H2       HT       0.417000        1.0080           0
     18628 WT1      6036     TIP3     OH2      OT      -0.834000       15.9994           0
     18629 WT1      6036     TIP3     H1       HT       0.417000        1.0080           0
     18630 WT1      6036     TIP3     H2       HT       0.417000        1.0080           0
     18631 WT1      6037     TIP3     OH2      OT      -0.834000       15.9994           0
     18632 WT1      6037     TIP3     H1       HT       0.417000        1.0080           0
     18633 WT1      6037     TIP3     H2       HT       0.417000        1.0080           0
     18634 WT1      6038     TIP3     OH2      OT      -0.834000       15.9994           0
     18635 WT1      6038     TIP3     H1       HT       0.417000        1.0080           0
     18636 WT1      6038     TIP3     H2       HT       0.417000        1.0080           0
     18637 WT1      6039     TIP3     OH2      OT      -0.834000       15.9994           0
     18638 WT1      6039     TIP3     H1       HT       0.417000        1.0080           0
     18639 WT1      6039     TIP3     H2       HT       0.417000        1.0080           0
     18640 WT1      6040     TIP3     OH2      OT      -0.834000       15.9994           0
     18641 WT1      6040     TIP3     H1       HT       0.417000        1.0080           0
     18642 WT1      6040     TIP3     H2       HT       0.417000        1.0080           0
     18643 WT1      6041     TIP3     OH2      OT      -0.834000       15.9994           0
     18644 WT1      6041     TIP3     H1       HT       0.417000        1.0080           0
     18645 WT1      6041     TIP3     H2       HT       0.417000        1.0080           0
     18646 WT1      6042     TIP3     OH2      OT      -0.834000       15.9994           0
     18647 WT1      6042     TIP3     H1       HT       0.417000        1.0080           0
     18648 WT1      6042     TIP3     H2       HT       0.417000        1.0080           0
     18649 WT1      6043     TIP3     OH2      OT      -0.834000       15.9994           0
     18650 WT1      6043     TIP3     H1       HT       0.417000        1.0080           0
     18651 WT1      6043     TIP3     H2       HT       0.417000        1.0080           0
     18652 WT1      6044     TIP3     OH2      OT      -0.834000       15.9994           0
     18653 WT1      6044     TIP3     H1       HT       0.417000        1.0080           0
     18654 WT1      6044     TIP3     H2       HT       0.417000        1.0080           0
     18655 WT1      6045     TIP3     OH2      OT      -0.834000       15.9994           0
     18656 WT1      6045     TIP3     H1       HT       0.417000        1.0080           0
     18657 WT1      6045     TIP3     H2       HT       0.417000        1.0080           0
     18658 WT1      6046     TIP3     OH2      OT      -0.834000       15.9994           0
     18659 WT1      6046     TIP3     H1       HT       0.417000        1.0080           0
     18660 WT1      6046     TIP3     H2       HT       0.417000        1.0080           0
     18661 WT1      6048     TIP3     OH2      OT      -0.834000       15.9994           0
     18662 WT1      6048     TIP3     H1       HT       0.417000        1.0080           0
     18663 WT1      6048     TIP3     H2       HT       0.417000        1.0080           0
     18664 WT1      6049     TIP3     OH2      OT      -0.834000       15.9994           0
     18665 WT1      6049     TIP3     H1       HT       0.417000        1.0080           0
     18666 WT1      6049     TIP3     H2       HT       0.417000        1.0080           0
     18667 WT1      6050     TIP3     OH2      OT      -0.834000       15.9994           0
     18668 WT1      6050     TIP3     H1       HT       0.417000        1.0080           0
     18669 WT1      6050     TIP3     H2       HT       0.417000        1.0080           0
     18670 WT1      6051     TIP3     OH2      OT      -0.834000       15.9994           0
     18671 WT1      6051     TIP3     H1       HT       0.417000        1.0080           0
     18672 WT1      6051     TIP3     H2       HT       0.417000        1.0080           0
     18673 WT1      6052     TIP3     OH2      OT      -0.834000       15.9994           0
     18674 WT1      6052     TIP3     H1       HT       0.417000        1.0080           0
     18675 WT1      6052     TIP3     H2       HT       0.417000        1.0080           0
     18676 WT1      6053     TIP3     OH2      OT      -0.834000       15.9994           0
     18677 WT1      6053     TIP3     H1       HT       0.417000        1.0080           0
     18678 WT1      6053     TIP3     H2       HT       0.417000        1.0080           0
     18679 WT1      6054     TIP3     OH2      OT      -0.834000       15.9994           0
     18680 WT1      6054     TIP3     H1       HT       0.417000        1.0080           0
     18681 WT1      6054     TIP3     H2       HT       0.417000        1.0080           0
     18682 WT1      6055     TIP3     OH2      OT      -0.834000       15.9994           0
     18683 WT1      6055     TIP3     H1       HT       0.417000        1.0080           0
     18684 WT1      6055     TIP3     H2       HT       0.417000        1.0080           0
     18685 WT1      6056     TIP3     OH2      OT      -0.834000       15.9994           0
     18686 WT1      6056     TIP3     H1       HT       0.417000        1.0080           0
     18687 WT1      6056     TIP3     H2       HT       0.417000        1.0080           0
     18688 WT1      6058     TIP3     OH2      OT      -0.834000       15.9994           0
     18689 WT1      6058     TIP3     H1       HT       0.417000        1.0080           0
     18690 WT1      6058     TIP3     H2       HT       0.417000        1.0080           0
     18691 WT1      6059     TIP3     OH2      OT      -0.834000       15.9994           0
     18692 WT1      6059     TIP3     H1       HT       0.417000        1.0080           0
     18693 WT1      6059     TIP3     H2       HT       0.417000        1.0080           0
     18694 WT1      6060     TIP3     OH2      OT      -0.834000       15.9994           0
     18695 WT1      6060     TIP3     H1       HT       0.417000        1.0080           0
     18696 WT1      6060     TIP3     H2       HT       0.417000        1.0080           0
     18697 WT1      6061     TIP3     OH2      OT      -0.834000       15.9994           0
     18698 WT1      6061     TIP3     H1       HT       0.417000        1.0080           0
     18699 WT1      6061     TIP3     H2       HT       0.417000        1.0080           0
     18700 WT1      6062     TIP3     OH2      OT      -0.834000       15.9994           0
     18701 WT1      6062     TIP3     H1       HT       0.417000        1.0080           0
     18702 WT1      6062     TIP3     H2       HT       0.417000        1.0080           0
     18703 WT1      6063     TIP3     OH2      OT      -0.834000       15.9994           0
     18704 WT1      6063     TIP3     H1       HT       0.417000        1.0080           0
     18705 WT1      6063     TIP3     H2       HT       0.417000        1.0080           0
     18706 WT1      6064     TIP3     OH2      OT      -0.834000       15.9994           0
     18707 WT1      6064     TIP3     H1       HT       0.417000        1.0080           0
     18708 WT1      6064     TIP3     H2       HT       0.417000        1.0080           0
     18709 WT1      6065     TIP3     OH2      OT      -0.834000       15.9994           0
     18710 WT1      6065     TIP3     H1       HT       0.417000        1.0080           0
     18711 WT1      6065     TIP3     H2       HT       0.417000        1.0080           0
     18712 WT1      6066     TIP3     OH2      OT      -0.834000       15.9994           0
     18713 WT1      6066     TIP3     H1       HT       0.417000        1.0080           0
     18714 WT1      6066     TIP3     H2       HT       0.417000        1.0080           0
     18715 WT1      6067     TIP3     OH2      OT      -0.834000       15.9994           0
     18716 WT1      6067     TIP3     H1       HT       0.417000        1.0080           0
     18717 WT1      6067     TIP3     H2       HT       0.417000        1.0080           0
     18718 WT1      6068     TIP3     OH2      OT      -0.834000       15.9994           0
     18719 WT1      6068     TIP3     H1       HT       0.417000        1.0080           0
     18720 WT1      6068     TIP3     H2       HT       0.417000        1.0080           0
     18721 WT1      6069     TIP3     OH2      OT      -0.834000       15.9994           0
     18722 WT1      6069     TIP3     H1       HT       0.417000        1.0080           0
     18723 WT1      6069     TIP3     H2       HT       0.417000        1.0080           0
     18724 WT1      6070     TIP3     OH2      OT      -0.834000       15.9994           0
     18725 WT1      6070     TIP3     H1       HT       0.417000        1.0080           0
     18726 WT1      6070     TIP3     H2       HT       0.417000        1.0080           0
     18727 WT1      6071     TIP3     OH2      OT      -0.834000       15.9994           0
     18728 WT1      6071     TIP3     H1       HT       0.417000        1.0080           0
     18729 WT1      6071     TIP3     H2       HT       0.417000        1.0080           0
     18730 WT1      6072     TIP3     OH2      OT      -0.834000       15.9994           0
     18731 WT1      6072     TIP3     H1       HT       0.417000        1.0080           0
     18732 WT1      6072     TIP3     H2       HT       0.417000        1.0080           0
     18733 WT1      6073     TIP3     OH2      OT      -0.834000       15.9994           0
     18734 WT1      6073     TIP3     H1       HT       0.417000        1.0080           0
     18735 WT1      6073     TIP3     H2       HT       0.417000        1.0080           0
     18736 WT1      6074     TIP3     OH2      OT      -0.834000       15.9994           0
     18737 WT1      6074     TIP3     H1       HT       0.417000        1.0080           0
     18738 WT1      6074     TIP3     H2       HT       0.417000        1.0080           0
     18739 WT1      6075     TIP3     OH2      OT      -0.834000       15.9994           0
     18740 WT1      6075     TIP3     H1       HT       0.417000        1.0080           0
     18741 WT1      6075     TIP3     H2       HT       0.417000        1.0080           0
     18742 WT1      6076     TIP3     OH2      OT      -0.834000       15.9994           0
     18743 WT1      6076     TIP3     H1       HT       0.417000        1.0080           0
     18744 WT1      6076     TIP3     H2       HT       0.417000        1.0080           0
     18745 WT1      6077     TIP3     OH2      OT      -0.834000       15.9994           0
     18746 WT1      6077     TIP3     H1       HT       0.417000        1.0080           0
     18747 WT1      6077     TIP3     H2       HT       0.417000        1.0080           0
     18748 WT1      6078     TIP3     OH2      OT      -0.834000       15.9994           0
     18749 WT1      6078     TIP3     H1       HT       0.417000        1.0080           0
     18750 WT1      6078     TIP3     H2       HT       0.417000        1.0080           0
     18751 WT1      6079     TIP3     OH2      OT      -0.834000       15.9994           0
     18752 WT1      6079     TIP3     H1       HT       0.417000        1.0080           0
     18753 WT1      6079     TIP3     H2       HT       0.417000        1.0080           0
     18754 WT1      6080     TIP3     OH2      OT      -0.834000       15.9994           0
     18755 WT1      6080     TIP3     H1       HT       0.417000        1.0080           0
     18756 WT1      6080     TIP3     H2       HT       0.417000        1.0080           0
     18757 WT1      6081     TIP3     OH2      OT      -0.834000       15.9994           0
     18758 WT1      6081     TIP3     H1       HT       0.417000        1.0080           0
     18759 WT1      6081     TIP3     H2       HT       0.417000        1.0080           0
     18760 WT1      6082     TIP3     OH2      OT      -0.834000       15.9994           0
     18761 WT1      6082     TIP3     H1       HT       0.417000        1.0080           0
     18762 WT1      6082     TIP3     H2       HT       0.417000        1.0080           0
     18763 WT1      6083     TIP3     OH2      OT      -0.834000       15.9994           0
     18764 WT1      6083     TIP3     H1       HT       0.417000        1.0080           0
     18765 WT1      6083     TIP3     H2       HT       0.417000        1.0080           0
     18766 WT1      6084     TIP3     OH2      OT      -0.834000       15.9994           0
     18767 WT1      6084     TIP3     H1       HT       0.417000        1.0080           0
     18768 WT1      6084     TIP3     H2       HT       0.417000        1.0080           0
     18769 WT1      6085     TIP3     OH2      OT      -0.834000       15.9994           0
     18770 WT1      6085     TIP3     H1       HT       0.417000        1.0080           0
     18771 WT1      6085     TIP3     H2       HT       0.417000        1.0080           0
     18772 WT1      6086     TIP3     OH2      OT      -0.834000       15.9994           0
     18773 WT1      6086     TIP3     H1       HT       0.417000        1.0080           0
     18774 WT1      6086     TIP3     H2       HT       0.417000        1.0080           0
     18775 WT1      6087     TIP3     OH2      OT      -0.834000       15.9994           0
     18776 WT1      6087     TIP3     H1       HT       0.417000        1.0080           0
     18777 WT1      6087     TIP3     H2       HT       0.417000        1.0080           0
     18778 WT1      6088     TIP3     OH2      OT      -0.834000       15.9994           0
     18779 WT1      6088     TIP3     H1       HT       0.417000        1.0080           0
     18780 WT1      6088     TIP3     H2       HT       0.417000        1.0080           0
     18781 WT1      6089     TIP3     OH2      OT      -0.834000       15.9994           0
     18782 WT1      6089     TIP3     H1       HT       0.417000        1.0080           0
     18783 WT1      6089     TIP3     H2       HT       0.417000        1.0080           0
     18784 WT1      6090     TIP3     OH2      OT      -0.834000       15.9994           0
     18785 WT1      6090     TIP3     H1       HT       0.417000        1.0080           0
     18786 WT1      6090     TIP3     H2       HT       0.417000        1.0080           0
     18787 WT1      6091     TIP3     OH2      OT      -0.834000       15.9994           0
     18788 WT1      6091     TIP3     H1       HT       0.417000        1.0080           0
     18789 WT1      6091     TIP3     H2       HT       0.417000        1.0080           0
     18790 WT1      6092     TIP3     OH2      OT      -0.834000       15.9994           0
     18791 WT1      6092     TIP3     H1       HT       0.417000        1.0080           0
     18792 WT1      6092     TIP3     H2       HT       0.417000        1.0080           0
     18793 WT1      6093     TIP3     OH2      OT      -0.834000       15.9994           0
     18794 WT1      6093     TIP3     H1       HT       0.417000        1.0080           0
     18795 WT1      6093     TIP3     H2       HT       0.417000        1.0080           0
     18796 WT1      6094     TIP3     OH2      OT      -0.834000       15.9994           0
     18797 WT1      6094     TIP3     H1       HT       0.417000        1.0080           0
     18798 WT1      6094     TIP3     H2       HT       0.417000        1.0080           0
     18799 WT1      6095     TIP3     OH2      OT      -0.834000       15.9994           0
     18800 WT1      6095     TIP3     H1       HT       0.417000        1.0080           0
     18801 WT1      6095     TIP3     H2       HT       0.417000        1.0080           0
     18802 WT1      6096     TIP3     OH2      OT      -0.834000       15.9994           0
     18803 WT1      6096     TIP3     H1       HT       0.417000        1.0080           0
     18804 WT1      6096     TIP3     H2       HT       0.417000        1.0080           0
     18805 WT1      6097     TIP3     OH2      OT      -0.834000       15.9994           0
     18806 WT1      6097     TIP3     H1       HT       0.417000        1.0080           0
     18807 WT1      6097     TIP3     H2       HT       0.417000        1.0080           0
     18808 WT1      6098     TIP3     OH2      OT      -0.834000       15.9994           0
     18809 WT1      6098     TIP3     H1       HT       0.417000        1.0080           0
     18810 WT1      6098     TIP3     H2       HT       0.417000        1.0080           0
     18811 WT1      6099     TIP3     OH2      OT      -0.834000       15.9994           0
     18812 WT1      6099     TIP3     H1       HT       0.417000        1.0080           0
     18813 WT1      6099     TIP3     H2       HT       0.417000        1.0080           0
     18814 WT1      6100     TIP3     OH2      OT      -0.834000       15.9994           0
     18815 WT1      6100     TIP3     H1       HT       0.417000        1.0080           0
     18816 WT1      6100     TIP3     H2       HT       0.417000        1.0080           0
     18817 WT1      6101     TIP3     OH2      OT      -0.834000       15.9994           0
     18818 WT1      6101     TIP3     H1       HT       0.417000        1.0080           0
     18819 WT1      6101     TIP3     H2       HT       0.417000        1.0080           0
     18820 WT1      6102     TIP3     OH2      OT      -0.834000       15.9994           0
     18821 WT1      6102     TIP3     H1       HT       0.417000        1.0080           0
     18822 WT1      6102     TIP3     H2       HT       0.417000        1.0080           0
     18823 WT1      6103     TIP3     OH2      OT      -0.834000       15.9994           0
     18824 WT1      6103     TIP3     H1       HT       0.417000        1.0080           0
     18825 WT1      6103     TIP3     H2       HT       0.417000        1.0080           0
     18826 WT1      6104     TIP3     OH2      OT      -0.834000       15.9994           0
     18827 WT1      6104     TIP3     H1       HT       0.417000        1.0080           0
     18828 WT1      6104     TIP3     H2       HT       0.417000        1.0080           0
     18829 WT1      6105     TIP3     OH2      OT      -0.834000       15.9994           0
     18830 WT1      6105     TIP3     H1       HT       0.417000        1.0080           0
     18831 WT1      6105     TIP3     H2       HT       0.417000        1.0080           0
     18832 WT1      6106     TIP3     OH2      OT      -0.834000       15.9994           0
     18833 WT1      6106     TIP3     H1       HT       0.417000        1.0080           0
     18834 WT1      6106     TIP3     H2       HT       0.417000        1.0080           0
     18835 WT1      6108     TIP3     OH2      OT      -0.834000       15.9994           0
     18836 WT1      6108     TIP3     H1       HT       0.417000        1.0080           0
     18837 WT1      6108     TIP3     H2       HT       0.417000        1.0080           0
     18838 WT1      6109     TIP3     OH2      OT      -0.834000       15.9994           0
     18839 WT1      6109     TIP3     H1       HT       0.417000        1.0080           0
     18840 WT1      6109     TIP3     H2       HT       0.417000        1.0080           0
     18841 WT1      6110     TIP3     OH2      OT      -0.834000       15.9994           0
     18842 WT1      6110     TIP3     H1       HT       0.417000        1.0080           0
     18843 WT1      6110     TIP3     H2       HT       0.417000        1.0080           0
     18844 WT1      6111     TIP3     OH2      OT      -0.834000       15.9994           0
     18845 WT1      6111     TIP3     H1       HT       0.417000        1.0080           0
     18846 WT1      6111     TIP3     H2       HT       0.417000        1.0080           0
     18847 WT1      6112     TIP3     OH2      OT      -0.834000       15.9994           0
     18848 WT1      6112     TIP3     H1       HT       0.417000        1.0080           0
     18849 WT1      6112     TIP3     H2       HT       0.417000        1.0080           0
     18850 WT1      6113     TIP3     OH2      OT      -0.834000       15.9994           0
     18851 WT1      6113     TIP3     H1       HT       0.417000        1.0080           0
     18852 WT1      6113     TIP3     H2       HT       0.417000        1.0080           0
     18853 WT1      6115     TIP3     OH2      OT      -0.834000       15.9994           0
     18854 WT1      6115     TIP3     H1       HT       0.417000        1.0080           0
     18855 WT1      6115     TIP3     H2       HT       0.417000        1.0080           0
     18856 WT1      6116     TIP3     OH2      OT      -0.834000       15.9994           0
     18857 WT1      6116     TIP3     H1       HT       0.417000        1.0080           0
     18858 WT1      6116     TIP3     H2       HT       0.417000        1.0080           0
     18859 WT1      6117     TIP3     OH2      OT      -0.834000       15.9994           0
     18860 WT1      6117     TIP3     H1       HT       0.417000        1.0080           0
     18861 WT1      6117     TIP3     H2       HT       0.417000        1.0080           0
     18862 WT1      6118     TIP3     OH2      OT      -0.834000       15.9994           0
     18863 WT1      6118     TIP3     H1       HT       0.417000        1.0080           0
     18864 WT1      6118     TIP3     H2       HT       0.417000        1.0080           0
     18865 WT1      6119     TIP3     OH2      OT      -0.834000       15.9994           0
     18866 WT1      6119     TIP3     H1       HT       0.417000        1.0080           0
     18867 WT1      6119     TIP3     H2       HT       0.417000        1.0080           0
     18868 WT1      6120     TIP3     OH2      OT      -0.834000       15.9994           0
     18869 WT1      6120     TIP3     H1       HT       0.417000        1.0080           0
     18870 WT1      6120     TIP3     H2       HT       0.417000        1.0080           0
     18871 WT1      6121     TIP3     OH2      OT      -0.834000       15.9994           0
     18872 WT1      6121     TIP3     H1       HT       0.417000        1.0080           0
     18873 WT1      6121     TIP3     H2       HT       0.417000        1.0080           0
     18874 WT1      6122     TIP3     OH2      OT      -0.834000       15.9994           0
     18875 WT1      6122     TIP3     H1       HT       0.417000        1.0080           0
     18876 WT1      6122     TIP3     H2       HT       0.417000        1.0080           0
     18877 WT1      6123     TIP3     OH2      OT      -0.834000       15.9994           0
     18878 WT1      6123     TIP3     H1       HT       0.417000        1.0080           0
     18879 WT1      6123     TIP3     H2       HT       0.417000        1.0080           0
     18880 WT1      6124     TIP3     OH2      OT      -0.834000       15.9994           0
     18881 WT1      6124     TIP3     H1       HT       0.417000        1.0080           0
     18882 WT1      6124     TIP3     H2       HT       0.417000        1.0080           0
     18883 WT1      6125     TIP3     OH2      OT      -0.834000       15.9994           0
     18884 WT1      6125     TIP3     H1       HT       0.417000        1.0080           0
     18885 WT1      6125     TIP3     H2       HT       0.417000        1.0080           0
     18886 WT1      6126     TIP3     OH2      OT      -0.834000       15.9994           0
     18887 WT1      6126     TIP3     H1       HT       0.417000        1.0080           0
     18888 WT1      6126     TIP3     H2       HT       0.417000        1.0080           0
     18889 WT1      6127     TIP3     OH2      OT      -0.834000       15.9994           0
     18890 WT1      6127     TIP3     H1       HT       0.417000        1.0080           0
     18891 WT1      6127     TIP3     H2       HT       0.417000        1.0080           0
     18892 WT1      6128     TIP3     OH2      OT      -0.834000       15.9994           0
     18893 WT1      6128     TIP3     H1       HT       0.417000        1.0080           0
     18894 WT1      6128     TIP3     H2       HT       0.417000        1.0080           0
     18895 WT1      6129     TIP3     OH2      OT      -0.834000       15.9994           0
     18896 WT1      6129     TIP3     H1       HT       0.417000        1.0080           0
     18897 WT1      6129     TIP3     H2       HT       0.417000        1.0080           0
     18898 WT1      6130     TIP3     OH2      OT      -0.834000       15.9994           0
     18899 WT1      6130     TIP3     H1       HT       0.417000        1.0080           0
     18900 WT1      6130     TIP3     H2       HT       0.417000        1.0080           0
     18901 WT1      6131     TIP3     OH2      OT      -0.834000       15.9994           0
     18902 WT1      6131     TIP3     H1       HT       0.417000        1.0080           0
     18903 WT1      6131     TIP3     H2       HT       0.417000        1.0080           0
     18904 WT1      6132     TIP3     OH2      OT      -0.834000       15.9994           0
     18905 WT1      6132     TIP3     H1       HT       0.417000        1.0080           0
     18906 WT1      6132     TIP3     H2       HT       0.417000        1.0080           0
     18907 WT1      6133     TIP3     OH2      OT      -0.834000       15.9994           0
     18908 WT1      6133     TIP3     H1       HT       0.417000        1.0080           0
     18909 WT1      6133     TIP3     H2       HT       0.417000        1.0080           0
     18910 WT1      6134     TIP3     OH2      OT      -0.834000       15.9994           0
     18911 WT1      6134     TIP3     H1       HT       0.417000        1.0080           0
     18912 WT1      6134     TIP3     H2       HT       0.417000        1.0080           0
     18913 WT1      6135     TIP3     OH2      OT      -0.834000       15.9994           0
     18914 WT1      6135     TIP3     H1       HT       0.417000        1.0080           0
     18915 WT1      6135     TIP3     H2       HT       0.417000        1.0080           0
     18916 WT1      6136     TIP3     OH2      OT      -0.834000       15.9994           0
     18917 WT1      6136     TIP3     H1       HT       0.417000        1.0080           0
     18918 WT1      6136     TIP3     H2       HT       0.417000        1.0080           0
     18919 WT1      6137     TIP3     OH2      OT      -0.834000       15.9994           0
     18920 WT1      6137     TIP3     H1       HT       0.417000        1.0080           0
     18921 WT1      6137     TIP3     H2       HT       0.417000        1.0080           0
     18922 WT1      6138     TIP3     OH2      OT      -0.834000       15.9994           0
     18923 WT1      6138     TIP3     H1       HT       0.417000        1.0080           0
     18924 WT1      6138     TIP3     H2       HT       0.417000        1.0080           0
     18925 WT1      6139     TIP3     OH2      OT      -0.834000       15.9994           0
     18926 WT1      6139     TIP3     H1       HT       0.417000        1.0080           0
     18927 WT1      6139     TIP3     H2       HT       0.417000        1.0080           0
     18928 WT1      6140     TIP3     OH2      OT      -0.834000       15.9994           0
     18929 WT1      6140     TIP3     H1       HT       0.417000        1.0080           0
     18930 WT1      6140     TIP3     H2       HT       0.417000        1.0080           0
     18931 WT1      6141     TIP3     OH2      OT      -0.834000       15.9994           0
     18932 WT1      6141     TIP3     H1       HT       0.417000        1.0080           0
     18933 WT1      6141     TIP3     H2       HT       0.417000        1.0080           0
     18934 WT1      6142     TIP3     OH2      OT      -0.834000       15.9994           0
     18935 WT1      6142     TIP3     H1       HT       0.417000        1.0080           0
     18936 WT1      6142     TIP3     H2       HT       0.417000        1.0080           0
     18937 WT1      6143     TIP3     OH2      OT      -0.834000       15.9994           0
     18938 WT1      6143     TIP3     H1       HT       0.417000        1.0080           0
     18939 WT1      6143     TIP3     H2       HT       0.417000        1.0080           0
     18940 WT1      6144     TIP3     OH2      OT      -0.834000       15.9994           0
     18941 WT1      6144     TIP3     H1       HT       0.417000        1.0080           0
     18942 WT1      6144     TIP3     H2       HT       0.417000        1.0080           0
     18943 WT1      6145     TIP3     OH2      OT      -0.834000       15.9994           0
     18944 WT1      6145     TIP3     H1       HT       0.417000        1.0080           0
     18945 WT1      6145     TIP3     H2       HT       0.417000        1.0080           0
     18946 WT1      6146     TIP3     OH2      OT      -0.834000       15.9994           0
     18947 WT1      6146     TIP3     H1       HT       0.417000        1.0080           0
     18948 WT1      6146     TIP3     H2       HT       0.417000        1.0080           0
     18949 WT1      6147     TIP3     OH2      OT      -0.834000       15.9994           0
     18950 WT1      6147     TIP3     H1       HT       0.417000        1.0080           0
     18951 WT1      6147     TIP3     H2       HT       0.417000        1.0080           0
     18952 WT1      6148     TIP3     OH2      OT      -0.834000       15.9994           0
     18953 WT1      6148     TIP3     H1       HT       0.417000        1.0080           0
     18954 WT1      6148     TIP3     H2       HT       0.417000        1.0080           0
     18955 WT1      6149     TIP3     OH2      OT      -0.834000       15.9994           0
     18956 WT1      6149     TIP3     H1       HT       0.417000        1.0080           0
     18957 WT1      6149     TIP3     H2       HT       0.417000        1.0080           0
     18958 WT1      6150     TIP3     OH2      OT      -0.834000       15.9994           0
     18959 WT1      6150     TIP3     H1       HT       0.417000        1.0080           0
     18960 WT1      6150     TIP3     H2       HT       0.417000        1.0080           0
     18961 WT1      6151     TIP3     OH2      OT      -0.834000       15.9994           0
     18962 WT1      6151     TIP3     H1       HT       0.417000        1.0080           0
     18963 WT1      6151     TIP3     H2       HT       0.417000        1.0080           0
     18964 WT1      6152     TIP3     OH2      OT      -0.834000       15.9994           0
     18965 WT1      6152     TIP3     H1       HT       0.417000        1.0080           0
     18966 WT1      6152     TIP3     H2       HT       0.417000        1.0080           0
     18967 WT1      6153     TIP3     OH2      OT      -0.834000       15.9994           0
     18968 WT1      6153     TIP3     H1       HT       0.417000        1.0080           0
     18969 WT1      6153     TIP3     H2       HT       0.417000        1.0080           0
     18970 WT1      6154     TIP3     OH2      OT      -0.834000       15.9994           0
     18971 WT1      6154     TIP3     H1       HT       0.417000        1.0080           0
     18972 WT1      6154     TIP3     H2       HT       0.417000        1.0080           0
     18973 WT1      6155     TIP3     OH2      OT      -0.834000       15.9994           0
     18974 WT1      6155     TIP3     H1       HT       0.417000        1.0080           0
     18975 WT1      6155     TIP3     H2       HT       0.417000        1.0080           0
     18976 WT1      6156     TIP3     OH2      OT      -0.834000       15.9994           0
     18977 WT1      6156     TIP3     H1       HT       0.417000        1.0080           0
     18978 WT1      6156     TIP3     H2       HT       0.417000        1.0080           0
     18979 WT1      6157     TIP3     OH2      OT      -0.834000       15.9994           0
     18980 WT1      6157     TIP3     H1       HT       0.417000        1.0080           0
     18981 WT1      6157     TIP3     H2       HT       0.417000        1.0080           0
     18982 WT1      6158     TIP3     OH2      OT      -0.834000       15.9994           0
     18983 WT1      6158     TIP3     H1       HT       0.417000        1.0080           0
     18984 WT1      6158     TIP3     H2       HT       0.417000        1.0080           0
     18985 WT1      6159     TIP3     OH2      OT      -0.834000       15.9994           0
     18986 WT1      6159     TIP3     H1       HT       0.417000        1.0080           0
     18987 WT1      6159     TIP3     H2       HT       0.417000        1.0080           0
     18988 WT1      6160     TIP3     OH2      OT      -0.834000       15.9994           0
     18989 WT1      6160     TIP3     H1       HT       0.417000        1.0080           0
     18990 WT1      6160     TIP3     H2       HT       0.417000        1.0080           0
     18991 WT1      6161     TIP3     OH2      OT      -0.834000       15.9994           0
     18992 WT1      6161     TIP3     H1       HT       0.417000        1.0080           0
     18993 WT1      6161     TIP3     H2       HT       0.417000        1.0080           0
     18994 WT1      6162     TIP3     OH2      OT      -0.834000       15.9994           0
     18995 WT1      6162     TIP3     H1       HT       0.417000        1.0080           0
     18996 WT1      6162     TIP3     H2       HT       0.417000        1.0080           0
     18997 WT1      6163     TIP3     OH2      OT      -0.834000       15.9994           0
     18998 WT1      6163     TIP3     H1       HT       0.417000        1.0080           0
     18999 WT1      6163     TIP3     H2       HT       0.417000        1.0080           0
     19000 WT1      6164     TIP3     OH2      OT      -0.834000       15.9994           0
     19001 WT1      6164     TIP3     H1       HT       0.417000        1.0080           0
     19002 WT1      6164     TIP3     H2       HT       0.417000        1.0080           0
     19003 WT1      6165     TIP3     OH2      OT      -0.834000       15.9994           0
     19004 WT1      6165     TIP3     H1       HT       0.417000        1.0080           0
     19005 WT1      6165     TIP3     H2       HT       0.417000        1.0080           0
     19006 WT1      6166     TIP3     OH2      OT      -0.834000       15.9994           0
     19007 WT1      6166     TIP3     H1       HT       0.417000        1.0080           0
     19008 WT1      6166     TIP3     H2       HT       0.417000        1.0080           0
     19009 WT1      6167     TIP3     OH2      OT      -0.834000       15.9994           0
     19010 WT1      6167     TIP3     H1       HT       0.417000        1.0080           0
     19011 WT1      6167     TIP3     H2       HT       0.417000        1.0080           0
     19012 WT1      6168     TIP3     OH2      OT      -0.834000       15.9994           0
     19013 WT1      6168     TIP3     H1       HT       0.417000        1.0080           0
     19014 WT1      6168     TIP3     H2       HT       0.417000        1.0080           0
     19015 WT1      6169     TIP3     OH2      OT      -0.834000       15.9994           0
     19016 WT1      6169     TIP3     H1       HT       0.417000        1.0080           0
     19017 WT1      6169     TIP3     H2       HT       0.417000        1.0080           0
     19018 WT1      6170     TIP3     OH2      OT      -0.834000       15.9994           0
     19019 WT1      6170     TIP3     H1       HT       0.417000        1.0080           0
     19020 WT1      6170     TIP3     H2       HT       0.417000        1.0080           0
     19021 WT1      6171     TIP3     OH2      OT      -0.834000       15.9994           0
     19022 WT1      6171     TIP3     H1       HT       0.417000        1.0080           0
     19023 WT1      6171     TIP3     H2       HT       0.417000        1.0080           0
     19024 WT1      6172     TIP3     OH2      OT      -0.834000       15.9994           0
     19025 WT1      6172     TIP3     H1       HT       0.417000        1.0080           0
     19026 WT1      6172     TIP3     H2       HT       0.417000        1.0080           0
     19027 WT1      6173     TIP3     OH2      OT      -0.834000       15.9994           0
     19028 WT1      6173     TIP3     H1       HT       0.417000        1.0080           0
     19029 WT1      6173     TIP3     H2       HT       0.417000        1.0080           0
     19030 WT1      6175     TIP3     OH2      OT      -0.834000       15.9994           0
     19031 WT1      6175     TIP3     H1       HT       0.417000        1.0080           0
     19032 WT1      6175     TIP3     H2       HT       0.417000        1.0080           0
     19033 WT1      6176     TIP3     OH2      OT      -0.834000       15.9994           0
     19034 WT1      6176     TIP3     H1       HT       0.417000        1.0080           0
     19035 WT1      6176     TIP3     H2       HT       0.417000        1.0080           0
     19036 WT1      6177     TIP3     OH2      OT      -0.834000       15.9994           0
     19037 WT1      6177     TIP3     H1       HT       0.417000        1.0080           0
     19038 WT1      6177     TIP3     H2       HT       0.417000        1.0080           0
     19039 WT1      6178     TIP3     OH2      OT      -0.834000       15.9994           0
     19040 WT1      6178     TIP3     H1       HT       0.417000        1.0080           0
     19041 WT1      6178     TIP3     H2       HT       0.417000        1.0080           0
     19042 WT1      6180     TIP3     OH2      OT      -0.834000       15.9994           0
     19043 WT1      6180     TIP3     H1       HT       0.417000        1.0080           0
     19044 WT1      6180     TIP3     H2       HT       0.417000        1.0080           0
     19045 WT1      6181     TIP3     OH2      OT      -0.834000       15.9994           0
     19046 WT1      6181     TIP3     H1       HT       0.417000        1.0080           0
     19047 WT1      6181     TIP3     H2       HT       0.417000        1.0080           0
     19048 WT1      6182     TIP3     OH2      OT      -0.834000       15.9994           0
     19049 WT1      6182     TIP3     H1       HT       0.417000        1.0080           0
     19050 WT1      6182     TIP3     H2       HT       0.417000        1.0080           0
     19051 WT1      6183     TIP3     OH2      OT      -0.834000       15.9994           0
     19052 WT1      6183     TIP3     H1       HT       0.417000        1.0080           0
     19053 WT1      6183     TIP3     H2       HT       0.417000        1.0080           0
     19054 WT1      6184     TIP3     OH2      OT      -0.834000       15.9994           0
     19055 WT1      6184     TIP3     H1       HT       0.417000        1.0080           0
     19056 WT1      6184     TIP3     H2       HT       0.417000        1.0080           0
     19057 WT1      6185     TIP3     OH2      OT      -0.834000       15.9994           0
     19058 WT1      6185     TIP3     H1       HT       0.417000        1.0080           0
     19059 WT1      6185     TIP3     H2       HT       0.417000        1.0080           0
     19060 WT1      6186     TIP3     OH2      OT      -0.834000       15.9994           0
     19061 WT1      6186     TIP3     H1       HT       0.417000        1.0080           0
     19062 WT1      6186     TIP3     H2       HT       0.417000        1.0080           0
     19063 WT1      6187     TIP3     OH2      OT      -0.834000       15.9994           0
     19064 WT1      6187     TIP3     H1       HT       0.417000        1.0080           0
     19065 WT1      6187     TIP3     H2       HT       0.417000        1.0080           0
     19066 WT1      6188     TIP3     OH2      OT      -0.834000       15.9994           0
     19067 WT1      6188     TIP3     H1       HT       0.417000        1.0080           0
     19068 WT1      6188     TIP3     H2       HT       0.417000        1.0080           0
     19069 WT1      6189     TIP3     OH2      OT      -0.834000       15.9994           0
     19070 WT1      6189     TIP3     H1       HT       0.417000        1.0080           0
     19071 WT1      6189     TIP3     H2       HT       0.417000        1.0080           0
     19072 WT1      6190     TIP3     OH2      OT      -0.834000       15.9994           0
     19073 WT1      6190     TIP3     H1       HT       0.417000        1.0080           0
     19074 WT1      6190     TIP3     H2       HT       0.417000        1.0080           0
     19075 WT1      6191     TIP3     OH2      OT      -0.834000       15.9994           0
     19076 WT1      6191     TIP3     H1       HT       0.417000        1.0080           0
     19077 WT1      6191     TIP3     H2       HT       0.417000        1.0080           0
     19078 WT1      6192     TIP3     OH2      OT      -0.834000       15.9994           0
     19079 WT1      6192     TIP3     H1       HT       0.417000        1.0080           0
     19080 WT1      6192     TIP3     H2       HT       0.417000        1.0080           0
     19081 WT1      6193     TIP3     OH2      OT      -0.834000       15.9994           0
     19082 WT1      6193     TIP3     H1       HT       0.417000        1.0080           0
     19083 WT1      6193     TIP3     H2       HT       0.417000        1.0080           0
     19084 WT1      6194     TIP3     OH2      OT      -0.834000       15.9994           0
     19085 WT1      6194     TIP3     H1       HT       0.417000        1.0080           0
     19086 WT1      6194     TIP3     H2       HT       0.417000        1.0080           0
     19087 WT1      6195     TIP3     OH2      OT      -0.834000       15.9994           0
     19088 WT1      6195     TIP3     H1       HT       0.417000        1.0080           0
     19089 WT1      6195     TIP3     H2       HT       0.417000        1.0080           0
     19090 WT1      6196     TIP3     OH2      OT      -0.834000       15.9994           0
     19091 WT1      6196     TIP3     H1       HT       0.417000        1.0080           0
     19092 WT1      6196     TIP3     H2       HT       0.417000        1.0080           0
     19093 WT1      6197     TIP3     OH2      OT      -0.834000       15.9994           0
     19094 WT1      6197     TIP3     H1       HT       0.417000        1.0080           0
     19095 WT1      6197     TIP3     H2       HT       0.417000        1.0080           0
     19096 WT1      6198     TIP3     OH2      OT      -0.834000       15.9994           0
     19097 WT1      6198     TIP3     H1       HT       0.417000        1.0080           0
     19098 WT1      6198     TIP3     H2       HT       0.417000        1.0080           0
     19099 WT1      6199     TIP3     OH2      OT      -0.834000       15.9994           0
     19100 WT1      6199     TIP3     H1       HT       0.417000        1.0080           0
     19101 WT1      6199     TIP3     H2       HT       0.417000        1.0080           0
     19102 WT1      6200     TIP3     OH2      OT      -0.834000       15.9994           0
     19103 WT1      6200     TIP3     H1       HT       0.417000        1.0080           0
     19104 WT1      6200     TIP3     H2       HT       0.417000        1.0080           0
     19105 WT1      6201     TIP3     OH2      OT      -0.834000       15.9994           0
     19106 WT1      6201     TIP3     H1       HT       0.417000        1.0080           0
     19107 WT1      6201     TIP3     H2       HT       0.417000        1.0080           0
     19108 WT1      6202     TIP3     OH2      OT      -0.834000       15.9994           0
     19109 WT1      6202     TIP3     H1       HT       0.417000        1.0080           0
     19110 WT1      6202     TIP3     H2       HT       0.417000        1.0080           0
     19111 WT1      6203     TIP3     OH2      OT      -0.834000       15.9994           0
     19112 WT1      6203     TIP3     H1       HT       0.417000        1.0080           0
     19113 WT1      6203     TIP3     H2       HT       0.417000        1.0080           0
     19114 WT1      6204     TIP3     OH2      OT      -0.834000       15.9994           0
     19115 WT1      6204     TIP3     H1       HT       0.417000        1.0080           0
     19116 WT1      6204     TIP3     H2       HT       0.417000        1.0080           0
     19117 WT1      6205     TIP3     OH2      OT      -0.834000       15.9994           0
     19118 WT1      6205     TIP3     H1       HT       0.417000        1.0080           0
     19119 WT1      6205     TIP3     H2       HT       0.417000        1.0080           0
     19120 WT1      6206     TIP3     OH2      OT      -0.834000       15.9994           0
     19121 WT1      6206     TIP3     H1       HT       0.417000        1.0080           0
     19122 WT1      6206     TIP3     H2       HT       0.417000        1.0080           0
     19123 WT1      6207     TIP3     OH2      OT      -0.834000       15.9994           0
     19124 WT1      6207     TIP3     H1       HT       0.417000        1.0080           0
     19125 WT1      6207     TIP3     H2       HT       0.417000        1.0080           0
     19126 WT1      6208     TIP3     OH2      OT      -0.834000       15.9994           0
     19127 WT1      6208     TIP3     H1       HT       0.417000        1.0080           0
     19128 WT1      6208     TIP3     H2       HT       0.417000        1.0080           0
     19129 WT1      6209     TIP3     OH2      OT      -0.834000       15.9994           0
     19130 WT1      6209     TIP3     H1       HT       0.417000        1.0080           0
     19131 WT1      6209     TIP3     H2       HT       0.417000        1.0080           0
     19132 WT1      6210     TIP3     OH2      OT      -0.834000       15.9994           0
     19133 WT1      6210     TIP3     H1       HT       0.417000        1.0080           0
     19134 WT1      6210     TIP3     H2       HT       0.417000        1.0080           0
     19135 WT1      6211     TIP3     OH2      OT      -0.834000       15.9994           0
     19136 WT1      6211     TIP3     H1       HT       0.417000        1.0080           0
     19137 WT1      6211     TIP3     H2       HT       0.417000        1.0080           0
     19138 WT1      6212     TIP3     OH2      OT      -0.834000       15.9994           0
     19139 WT1      6212     TIP3     H1       HT       0.417000        1.0080           0
     19140 WT1      6212     TIP3     H2       HT       0.417000        1.0080           0
     19141 WT1      6213     TIP3     OH2      OT      -0.834000       15.9994           0
     19142 WT1      6213     TIP3     H1       HT       0.417000        1.0080           0
     19143 WT1      6213     TIP3     H2       HT       0.417000        1.0080           0
     19144 WT1      6214     TIP3     OH2      OT      -0.834000       15.9994           0
     19145 WT1      6214     TIP3     H1       HT       0.417000        1.0080           0
     19146 WT1      6214     TIP3     H2       HT       0.417000        1.0080           0
     19147 WT1      6215     TIP3     OH2      OT      -0.834000       15.9994           0
     19148 WT1      6215     TIP3     H1       HT       0.417000        1.0080           0
     19149 WT1      6215     TIP3     H2       HT       0.417000        1.0080           0
     19150 WT1      6216     TIP3     OH2      OT      -0.834000       15.9994           0
     19151 WT1      6216     TIP3     H1       HT       0.417000        1.0080           0
     19152 WT1      6216     TIP3     H2       HT       0.417000        1.0080           0
     19153 WT1      6217     TIP3     OH2      OT      -0.834000       15.9994           0
     19154 WT1      6217     TIP3     H1       HT       0.417000        1.0080           0
     19155 WT1      6217     TIP3     H2       HT       0.417000        1.0080           0
     19156 WT1      6218     TIP3     OH2      OT      -0.834000       15.9994           0
     19157 WT1      6218     TIP3     H1       HT       0.417000        1.0080           0
     19158 WT1      6218     TIP3     H2       HT       0.417000        1.0080           0
     19159 WT1      6219     TIP3     OH2      OT      -0.834000       15.9994           0
     19160 WT1      6219     TIP3     H1       HT       0.417000        1.0080           0
     19161 WT1      6219     TIP3     H2       HT       0.417000        1.0080           0
     19162 WT1      6220     TIP3     OH2      OT      -0.834000       15.9994           0
     19163 WT1      6220     TIP3     H1       HT       0.417000        1.0080           0
     19164 WT1      6220     TIP3     H2       HT       0.417000        1.0080           0
     19165 WT1      6221     TIP3     OH2      OT      -0.834000       15.9994           0
     19166 WT1      6221     TIP3     H1       HT       0.417000        1.0080           0
     19167 WT1      6221     TIP3     H2       HT       0.417000        1.0080           0
     19168 WT1      6222     TIP3     OH2      OT      -0.834000       15.9994           0
     19169 WT1      6222     TIP3     H1       HT       0.417000        1.0080           0
     19170 WT1      6222     TIP3     H2       HT       0.417000        1.0080           0
     19171 WT1      6223     TIP3     OH2      OT      -0.834000       15.9994           0
     19172 WT1      6223     TIP3     H1       HT       0.417000        1.0080           0
     19173 WT1      6223     TIP3     H2       HT       0.417000        1.0080           0
     19174 WT1      6224     TIP3     OH2      OT      -0.834000       15.9994           0
     19175 WT1      6224     TIP3     H1       HT       0.417000        1.0080           0
     19176 WT1      6224     TIP3     H2       HT       0.417000        1.0080           0
     19177 WT1      6225     TIP3     OH2      OT      -0.834000       15.9994           0
     19178 WT1      6225     TIP3     H1       HT       0.417000        1.0080           0
     19179 WT1      6225     TIP3     H2       HT       0.417000        1.0080           0
     19180 WT1      6226     TIP3     OH2      OT      -0.834000       15.9994           0
     19181 WT1      6226     TIP3     H1       HT       0.417000        1.0080           0
     19182 WT1      6226     TIP3     H2       HT       0.417000        1.0080           0
     19183 WT1      6227     TIP3     OH2      OT      -0.834000       15.9994           0
     19184 WT1      6227     TIP3     H1       HT       0.417000        1.0080           0
     19185 WT1      6227     TIP3     H2       HT       0.417000        1.0080           0
     19186 WT1      6228     TIP3     OH2      OT      -0.834000       15.9994           0
     19187 WT1      6228     TIP3     H1       HT       0.417000        1.0080           0
     19188 WT1      6228     TIP3     H2       HT       0.417000        1.0080           0
     19189 WT1      6229     TIP3     OH2      OT      -0.834000       15.9994           0
     19190 WT1      6229     TIP3     H1       HT       0.417000        1.0080           0
     19191 WT1      6229     TIP3     H2       HT       0.417000        1.0080           0
     19192 WT1      6230     TIP3     OH2      OT      -0.834000       15.9994           0
     19193 WT1      6230     TIP3     H1       HT       0.417000        1.0080           0
     19194 WT1      6230     TIP3     H2       HT       0.417000        1.0080           0
     19195 WT1      6231     TIP3     OH2      OT      -0.834000       15.9994           0
     19196 WT1      6231     TIP3     H1       HT       0.417000        1.0080           0
     19197 WT1      6231     TIP3     H2       HT       0.417000        1.0080           0
     19198 WT1      6232     TIP3     OH2      OT      -0.834000       15.9994           0
     19199 WT1      6232     TIP3     H1       HT       0.417000        1.0080           0
     19200 WT1      6232     TIP3     H2       HT       0.417000        1.0080           0
     19201 WT1      6233     TIP3     OH2      OT      -0.834000       15.9994           0
     19202 WT1      6233     TIP3     H1       HT       0.417000        1.0080           0
     19203 WT1      6233     TIP3     H2       HT       0.417000        1.0080           0
     19204 WT1      6234     TIP3     OH2      OT      -0.834000       15.9994           0
     19205 WT1      6234     TIP3     H1       HT       0.417000        1.0080           0
     19206 WT1      6234     TIP3     H2       HT       0.417000        1.0080           0
     19207 WT1      6235     TIP3     OH2      OT      -0.834000       15.9994           0
     19208 WT1      6235     TIP3     H1       HT       0.417000        1.0080           0
     19209 WT1      6235     TIP3     H2       HT       0.417000        1.0080           0
     19210 WT1      6236     TIP3     OH2      OT      -0.834000       15.9994           0
     19211 WT1      6236     TIP3     H1       HT       0.417000        1.0080           0
     19212 WT1      6236     TIP3     H2       HT       0.417000        1.0080           0
     19213 WT1      6237     TIP3     OH2      OT      -0.834000       15.9994           0
     19214 WT1      6237     TIP3     H1       HT       0.417000        1.0080           0
     19215 WT1      6237     TIP3     H2       HT       0.417000        1.0080           0
     19216 WT1      6238     TIP3     OH2      OT      -0.834000       15.9994           0
     19217 WT1      6238     TIP3     H1       HT       0.417000        1.0080           0
     19218 WT1      6238     TIP3     H2       HT       0.417000        1.0080           0
     19219 WT1      6239     TIP3     OH2      OT      -0.834000       15.9994           0
     19220 WT1      6239     TIP3     H1       HT       0.417000        1.0080           0
     19221 WT1      6239     TIP3     H2       HT       0.417000        1.0080           0
     19222 WT1      6240     TIP3     OH2      OT      -0.834000       15.9994           0
     19223 WT1      6240     TIP3     H1       HT       0.417000        1.0080           0
     19224 WT1      6240     TIP3     H2       HT       0.417000        1.0080           0
     19225 WT1      6241     TIP3     OH2      OT      -0.834000       15.9994           0
     19226 WT1      6241     TIP3     H1       HT       0.417000        1.0080           0
     19227 WT1      6241     TIP3     H2       HT       0.417000        1.0080           0
     19228 WT1      6242     TIP3     OH2      OT      -0.834000       15.9994           0
     19229 WT1      6242     TIP3     H1       HT       0.417000        1.0080           0
     19230 WT1      6242     TIP3     H2       HT       0.417000        1.0080           0
     19231 WT1      6243     TIP3     OH2      OT      -0.834000       15.9994           0
     19232 WT1      6243     TIP3     H1       HT       0.417000        1.0080           0
     19233 WT1      6243     TIP3     H2       HT       0.417000        1.0080           0
     19234 WT1      6244     TIP3     OH2      OT      -0.834000       15.9994           0
     19235 WT1      6244     TIP3     H1       HT       0.417000        1.0080           0
     19236 WT1      6244     TIP3     H2       HT       0.417000        1.0080           0
     19237 WT1      6245     TIP3     OH2      OT      -0.834000       15.9994           0
     19238 WT1      6245     TIP3     H1       HT       0.417000        1.0080           0
     19239 WT1      6245     TIP3     H2       HT       0.417000        1.0080           0
     19240 WT1      6246     TIP3     OH2      OT      -0.834000       15.9994           0
     19241 WT1      6246     TIP3     H1       HT       0.417000        1.0080           0
     19242 WT1      6246     TIP3     H2       HT       0.417000        1.0080           0
     19243 WT1      6247     TIP3     OH2      OT      -0.834000       15.9994           0
     19244 WT1      6247     TIP3     H1       HT       0.417000        1.0080           0
     19245 WT1      6247     TIP3     H2       HT       0.417000        1.0080           0
     19246 WT1      6248     TIP3     OH2      OT      -0.834000       15.9994           0
     19247 WT1      6248     TIP3     H1       HT       0.417000        1.0080           0
     19248 WT1      6248     TIP3     H2       HT       0.417000        1.0080           0
     19249 WT1      6249     TIP3     OH2      OT      -0.834000       15.9994           0
     19250 WT1      6249     TIP3     H1       HT       0.417000        1.0080           0
     19251 WT1      6249     TIP3     H2       HT       0.417000        1.0080           0
     19252 WT1      6250     TIP3     OH2      OT      -0.834000       15.9994           0
     19253 WT1      6250     TIP3     H1       HT       0.417000        1.0080           0
     19254 WT1      6250     TIP3     H2       HT       0.417000        1.0080           0
     19255 WT1      6251     TIP3     OH2      OT      -0.834000       15.9994           0
     19256 WT1      6251     TIP3     H1       HT       0.417000        1.0080           0
     19257 WT1      6251     TIP3     H2       HT       0.417000        1.0080           0
     19258 WT1      6252     TIP3     OH2      OT      -0.834000       15.9994           0
     19259 WT1      6252     TIP3     H1       HT       0.417000        1.0080           0
     19260 WT1      6252     TIP3     H2       HT       0.417000        1.0080           0
     19261 WT1      6253     TIP3     OH2      OT      -0.834000       15.9994           0
     19262 WT1      6253     TIP3     H1       HT       0.417000        1.0080           0
     19263 WT1      6253     TIP3     H2       HT       0.417000        1.0080           0
     19264 WT1      6254     TIP3     OH2      OT      -0.834000       15.9994           0
     19265 WT1      6254     TIP3     H1       HT       0.417000        1.0080           0
     19266 WT1      6254     TIP3     H2       HT       0.417000        1.0080           0
     19267 WT1      6255     TIP3     OH2      OT      -0.834000       15.9994           0
     19268 WT1      6255     TIP3     H1       HT       0.417000        1.0080           0
     19269 WT1      6255     TIP3     H2       HT       0.417000        1.0080           0
     19270 WT1      6256     TIP3     OH2      OT      -0.834000       15.9994           0
     19271 WT1      6256     TIP3     H1       HT       0.417000        1.0080           0
     19272 WT1      6256     TIP3     H2       HT       0.417000        1.0080           0
     19273 WT1      6257     TIP3     OH2      OT      -0.834000       15.9994           0
     19274 WT1      6257     TIP3     H1       HT       0.417000        1.0080           0
     19275 WT1      6257     TIP3     H2       HT       0.417000        1.0080           0
     19276 WT1      6258     TIP3     OH2      OT      -0.834000       15.9994           0
     19277 WT1      6258     TIP3     H1       HT       0.417000        1.0080           0
     19278 WT1      6258     TIP3     H2       HT       0.417000        1.0080           0
     19279 WT1      6260     TIP3     OH2      OT      -0.834000       15.9994           0
     19280 WT1      6260     TIP3     H1       HT       0.417000        1.0080           0
     19281 WT1      6260     TIP3     H2       HT       0.417000        1.0080           0
     19282 WT1      6261     TIP3     OH2      OT      -0.834000       15.9994           0
     19283 WT1      6261     TIP3     H1       HT       0.417000        1.0080           0
     19284 WT1      6261     TIP3     H2       HT       0.417000        1.0080           0
     19285 WT1      6262     TIP3     OH2      OT      -0.834000       15.9994           0
     19286 WT1      6262     TIP3     H1       HT       0.417000        1.0080           0
     19287 WT1      6262     TIP3     H2       HT       0.417000        1.0080           0
     19288 WT1      6263     TIP3     OH2      OT      -0.834000       15.9994           0
     19289 WT1      6263     TIP3     H1       HT       0.417000        1.0080           0
     19290 WT1      6263     TIP3     H2       HT       0.417000        1.0080           0
     19291 WT1      6264     TIP3     OH2      OT      -0.834000       15.9994           0
     19292 WT1      6264     TIP3     H1       HT       0.417000        1.0080           0
     19293 WT1      6264     TIP3     H2       HT       0.417000        1.0080           0
     19294 WT1      6265     TIP3     OH2      OT      -0.834000       15.9994           0
     19295 WT1      6265     TIP3     H1       HT       0.417000        1.0080           0
     19296 WT1      6265     TIP3     H2       HT       0.417000        1.0080           0
     19297 WT1      6266     TIP3     OH2      OT      -0.834000       15.9994           0
     19298 WT1      6266     TIP3     H1       HT       0.417000        1.0080           0
     19299 WT1      6266     TIP3     H2       HT       0.417000        1.0080           0
     19300 WT1      6267     TIP3     OH2      OT      -0.834000       15.9994           0
     19301 WT1      6267     TIP3     H1       HT       0.417000        1.0080           0
     19302 WT1      6267     TIP3     H2       HT       0.417000        1.0080           0
     19303 WT1      6268     TIP3     OH2      OT      -0.834000       15.9994           0
     19304 WT1      6268     TIP3     H1       HT       0.417000        1.0080           0
     19305 WT1      6268     TIP3     H2       HT       0.417000        1.0080           0
     19306 WT1      6269     TIP3     OH2      OT      -0.834000       15.9994           0
     19307 WT1      6269     TIP3     H1       HT       0.417000        1.0080           0
     19308 WT1      6269     TIP3     H2       HT       0.417000        1.0080           0
     19309 WT1      6270     TIP3     OH2      OT      -0.834000       15.9994           0
     19310 WT1      6270     TIP3     H1       HT       0.417000        1.0080           0
     19311 WT1      6270     TIP3     H2       HT       0.417000        1.0080           0
     19312 WT1      6271     TIP3     OH2      OT      -0.834000       15.9994           0
     19313 WT1      6271     TIP3     H1       HT       0.417000        1.0080           0
     19314 WT1      6271     TIP3     H2       HT       0.417000        1.0080           0
     19315 WT1      6272     TIP3     OH2      OT      -0.834000       15.9994           0
     19316 WT1      6272     TIP3     H1       HT       0.417000        1.0080           0
     19317 WT1      6272     TIP3     H2       HT       0.417000        1.0080           0
     19318 WT1      6273     TIP3     OH2      OT      -0.834000       15.9994           0
     19319 WT1      6273     TIP3     H1       HT       0.417000        1.0080           0
     19320 WT1      6273     TIP3     H2       HT       0.417000        1.0080           0
     19321 WT1      6274     TIP3     OH2      OT      -0.834000       15.9994           0
     19322 WT1      6274     TIP3     H1       HT       0.417000        1.0080           0
     19323 WT1      6274     TIP3     H2       HT       0.417000        1.0080           0
     19324 WT1      6275     TIP3     OH2      OT      -0.834000       15.9994           0
     19325 WT1      6275     TIP3     H1       HT       0.417000        1.0080           0
     19326 WT1      6275     TIP3     H2       HT       0.417000        1.0080           0
     19327 WT1      6276     TIP3     OH2      OT      -0.834000       15.9994           0
     19328 WT1      6276     TIP3     H1       HT       0.417000        1.0080           0
     19329 WT1      6276     TIP3     H2       HT       0.417000        1.0080           0
     19330 WT1      6277     TIP3     OH2      OT      -0.834000       15.9994           0
     19331 WT1      6277     TIP3     H1       HT       0.417000        1.0080           0
     19332 WT1      6277     TIP3     H2       HT       0.417000        1.0080           0
     19333 WT1      6278     TIP3     OH2      OT      -0.834000       15.9994           0
     19334 WT1      6278     TIP3     H1       HT       0.417000        1.0080           0
     19335 WT1      6278     TIP3     H2       HT       0.417000        1.0080           0
     19336 WT1      6279     TIP3     OH2      OT      -0.834000       15.9994           0
     19337 WT1      6279     TIP3     H1       HT       0.417000        1.0080           0
     19338 WT1      6279     TIP3     H2       HT       0.417000        1.0080           0
     19339 WT1      6280     TIP3     OH2      OT      -0.834000       15.9994           0
     19340 WT1      6280     TIP3     H1       HT       0.417000        1.0080           0
     19341 WT1      6280     TIP3     H2       HT       0.417000        1.0080           0
     19342 WT1      6281     TIP3     OH2      OT      -0.834000       15.9994           0
     19343 WT1      6281     TIP3     H1       HT       0.417000        1.0080           0
     19344 WT1      6281     TIP3     H2       HT       0.417000        1.0080           0
     19345 WT1      6282     TIP3     OH2      OT      -0.834000       15.9994           0
     19346 WT1      6282     TIP3     H1       HT       0.417000        1.0080           0
     19347 WT1      6282     TIP3     H2       HT       0.417000        1.0080           0
     19348 WT1      6283     TIP3     OH2      OT      -0.834000       15.9994           0
     19349 WT1      6283     TIP3     H1       HT       0.417000        1.0080           0
     19350 WT1      6283     TIP3     H2       HT       0.417000        1.0080           0
     19351 WT1      6284     TIP3     OH2      OT      -0.834000       15.9994           0
     19352 WT1      6284     TIP3     H1       HT       0.417000        1.0080           0
     19353 WT1      6284     TIP3     H2       HT       0.417000        1.0080           0
     19354 WT1      6285     TIP3     OH2      OT      -0.834000       15.9994           0
     19355 WT1      6285     TIP3     H1       HT       0.417000        1.0080           0
     19356 WT1      6285     TIP3     H2       HT       0.417000        1.0080           0
     19357 WT1      6286     TIP3     OH2      OT      -0.834000       15.9994           0
     19358 WT1      6286     TIP3     H1       HT       0.417000        1.0080           0
     19359 WT1      6286     TIP3     H2       HT       0.417000        1.0080           0
     19360 WT1      6287     TIP3     OH2      OT      -0.834000       15.9994           0
     19361 WT1      6287     TIP3     H1       HT       0.417000        1.0080           0
     19362 WT1      6287     TIP3     H2       HT       0.417000        1.0080           0
     19363 WT1      6288     TIP3     OH2      OT      -0.834000       15.9994           0
     19364 WT1      6288     TIP3     H1       HT       0.417000        1.0080           0
     19365 WT1      6288     TIP3     H2       HT       0.417000        1.0080           0
     19366 WT1      6289     TIP3     OH2      OT      -0.834000       15.9994           0
     19367 WT1      6289     TIP3     H1       HT       0.417000        1.0080           0
     19368 WT1      6289     TIP3     H2       HT       0.417000        1.0080           0
     19369 WT1      6290     TIP3     OH2      OT      -0.834000       15.9994           0
     19370 WT1      6290     TIP3     H1       HT       0.417000        1.0080           0
     19371 WT1      6290     TIP3     H2       HT       0.417000        1.0080           0
     19372 WT1      6291     TIP3     OH2      OT      -0.834000       15.9994           0
     19373 WT1      6291     TIP3     H1       HT       0.417000        1.0080           0
     19374 WT1      6291     TIP3     H2       HT       0.417000        1.0080           0
     19375 WT1      6292     TIP3     OH2      OT      -0.834000       15.9994           0
     19376 WT1      6292     TIP3     H1       HT       0.417000        1.0080           0
     19377 WT1      6292     TIP3     H2       HT       0.417000        1.0080           0
     19378 WT1      6293     TIP3     OH2      OT      -0.834000       15.9994           0
     19379 WT1      6293     TIP3     H1       HT       0.417000        1.0080           0
     19380 WT1      6293     TIP3     H2       HT       0.417000        1.0080           0
     19381 WT1      6294     TIP3     OH2      OT      -0.834000       15.9994           0
     19382 WT1      6294     TIP3     H1       HT       0.417000        1.0080           0
     19383 WT1      6294     TIP3     H2       HT       0.417000        1.0080           0
     19384 WT1      6295     TIP3     OH2      OT      -0.834000       15.9994           0
     19385 WT1      6295     TIP3     H1       HT       0.417000        1.0080           0
     19386 WT1      6295     TIP3     H2       HT       0.417000        1.0080           0
     19387 WT1      6296     TIP3     OH2      OT      -0.834000       15.9994           0
     19388 WT1      6296     TIP3     H1       HT       0.417000        1.0080           0
     19389 WT1      6296     TIP3     H2       HT       0.417000        1.0080           0
     19390 WT1      6297     TIP3     OH2      OT      -0.834000       15.9994           0
     19391 WT1      6297     TIP3     H1       HT       0.417000        1.0080           0
     19392 WT1      6297     TIP3     H2       HT       0.417000        1.0080           0
     19393 WT1      6298     TIP3     OH2      OT      -0.834000       15.9994           0
     19394 WT1      6298     TIP3     H1       HT       0.417000        1.0080           0
     19395 WT1      6298     TIP3     H2       HT       0.417000        1.0080           0
     19396 WT1      6299     TIP3     OH2      OT      -0.834000       15.9994           0
     19397 WT1      6299     TIP3     H1       HT       0.417000        1.0080           0
     19398 WT1      6299     TIP3     H2       HT       0.417000        1.0080           0
     19399 WT1      6300     TIP3     OH2      OT      -0.834000       15.9994           0
     19400 WT1      6300     TIP3     H1       HT       0.417000        1.0080           0
     19401 WT1      6300     TIP3     H2       HT       0.417000        1.0080           0
     19402 WT1      6301     TIP3     OH2      OT      -0.834000       15.9994           0
     19403 WT1      6301     TIP3     H1       HT       0.417000        1.0080           0
     19404 WT1      6301     TIP3     H2       HT       0.417000        1.0080           0
     19405 WT1      6302     TIP3     OH2      OT      -0.834000       15.9994           0
     19406 WT1      6302     TIP3     H1       HT       0.417000        1.0080           0
     19407 WT1      6302     TIP3     H2       HT       0.417000        1.0080           0
     19408 WT1      6303     TIP3     OH2      OT      -0.834000       15.9994           0
     19409 WT1      6303     TIP3     H1       HT       0.417000        1.0080           0
     19410 WT1      6303     TIP3     H2       HT       0.417000        1.0080           0
     19411 WT1      6304     TIP3     OH2      OT      -0.834000       15.9994           0
     19412 WT1      6304     TIP3     H1       HT       0.417000        1.0080           0
     19413 WT1      6304     TIP3     H2       HT       0.417000        1.0080           0
     19414 WT1      6305     TIP3     OH2      OT      -0.834000       15.9994           0
     19415 WT1      6305     TIP3     H1       HT       0.417000        1.0080           0
     19416 WT1      6305     TIP3     H2       HT       0.417000        1.0080           0
     19417 WT1      6306     TIP3     OH2      OT      -0.834000       15.9994           0
     19418 WT1      6306     TIP3     H1       HT       0.417000        1.0080           0
     19419 WT1      6306     TIP3     H2       HT       0.417000        1.0080           0
     19420 WT1      6307     TIP3     OH2      OT      -0.834000       15.9994           0
     19421 WT1      6307     TIP3     H1       HT       0.417000        1.0080           0
     19422 WT1      6307     TIP3     H2       HT       0.417000        1.0080           0
     19423 WT1      6308     TIP3     OH2      OT      -0.834000       15.9994           0
     19424 WT1      6308     TIP3     H1       HT       0.417000        1.0080           0
     19425 WT1      6308     TIP3     H2       HT       0.417000        1.0080           0
     19426 WT1      6309     TIP3     OH2      OT      -0.834000       15.9994           0
     19427 WT1      6309     TIP3     H1       HT       0.417000        1.0080           0
     19428 WT1      6309     TIP3     H2       HT       0.417000        1.0080           0
     19429 WT1      6310     TIP3     OH2      OT      -0.834000       15.9994           0
     19430 WT1      6310     TIP3     H1       HT       0.417000        1.0080           0
     19431 WT1      6310     TIP3     H2       HT       0.417000        1.0080           0
     19432 WT1      6311     TIP3     OH2      OT      -0.834000       15.9994           0
     19433 WT1      6311     TIP3     H1       HT       0.417000        1.0080           0
     19434 WT1      6311     TIP3     H2       HT       0.417000        1.0080           0
     19435 WT1      6312     TIP3     OH2      OT      -0.834000       15.9994           0
     19436 WT1      6312     TIP3     H1       HT       0.417000        1.0080           0
     19437 WT1      6312     TIP3     H2       HT       0.417000        1.0080           0
     19438 WT1      6313     TIP3     OH2      OT      -0.834000       15.9994           0
     19439 WT1      6313     TIP3     H1       HT       0.417000        1.0080           0
     19440 WT1      6313     TIP3     H2       HT       0.417000        1.0080           0
     19441 WT1      6314     TIP3     OH2      OT      -0.834000       15.9994           0
     19442 WT1      6314     TIP3     H1       HT       0.417000        1.0080           0
     19443 WT1      6314     TIP3     H2       HT       0.417000        1.0080           0
     19444 WT1      6315     TIP3     OH2      OT      -0.834000       15.9994           0
     19445 WT1      6315     TIP3     H1       HT       0.417000        1.0080           0
     19446 WT1      6315     TIP3     H2       HT       0.417000        1.0080           0
     19447 WT1      6316     TIP3     OH2      OT      -0.834000       15.9994           0
     19448 WT1      6316     TIP3     H1       HT       0.417000        1.0080           0
     19449 WT1      6316     TIP3     H2       HT       0.417000        1.0080           0
     19450 WT1      6317     TIP3     OH2      OT      -0.834000       15.9994           0
     19451 WT1      6317     TIP3     H1       HT       0.417000        1.0080           0
     19452 WT1      6317     TIP3     H2       HT       0.417000        1.0080           0
     19453 WT1      6318     TIP3     OH2      OT      -0.834000       15.9994           0
     19454 WT1      6318     TIP3     H1       HT       0.417000        1.0080           0
     19455 WT1      6318     TIP3     H2       HT       0.417000        1.0080           0
     19456 WT1      6319     TIP3     OH2      OT      -0.834000       15.9994           0
     19457 WT1      6319     TIP3     H1       HT       0.417000        1.0080           0
     19458 WT1      6319     TIP3     H2       HT       0.417000        1.0080           0
     19459 WT1      6320     TIP3     OH2      OT      -0.834000       15.9994           0
     19460 WT1      6320     TIP3     H1       HT       0.417000        1.0080           0
     19461 WT1      6320     TIP3     H2       HT       0.417000        1.0080           0
     19462 WT1      6321     TIP3     OH2      OT      -0.834000       15.9994           0
     19463 WT1      6321     TIP3     H1       HT       0.417000        1.0080           0
     19464 WT1      6321     TIP3     H2       HT       0.417000        1.0080           0
     19465 WT1      6323     TIP3     OH2      OT      -0.834000       15.9994           0
     19466 WT1      6323     TIP3     H1       HT       0.417000        1.0080           0
     19467 WT1      6323     TIP3     H2       HT       0.417000        1.0080           0
     19468 WT1      6324     TIP3     OH2      OT      -0.834000       15.9994           0
     19469 WT1      6324     TIP3     H1       HT       0.417000        1.0080           0
     19470 WT1      6324     TIP3     H2       HT       0.417000        1.0080           0
     19471 WT1      6325     TIP3     OH2      OT      -0.834000       15.9994           0
     19472 WT1      6325     TIP3     H1       HT       0.417000        1.0080           0
     19473 WT1      6325     TIP3     H2       HT       0.417000        1.0080           0
     19474 WT1      6326     TIP3     OH2      OT      -0.834000       15.9994           0
     19475 WT1      6326     TIP3     H1       HT       0.417000        1.0080           0
     19476 WT1      6326     TIP3     H2       HT       0.417000        1.0080           0
     19477 WT1      6327     TIP3     OH2      OT      -0.834000       15.9994           0
     19478 WT1      6327     TIP3     H1       HT       0.417000        1.0080           0
     19479 WT1      6327     TIP3     H2       HT       0.417000        1.0080           0
     19480 WT1      6328     TIP3     OH2      OT      -0.834000       15.9994           0
     19481 WT1      6328     TIP3     H1       HT       0.417000        1.0080           0
     19482 WT1      6328     TIP3     H2       HT       0.417000        1.0080           0
     19483 WT1      6329     TIP3     OH2      OT      -0.834000       15.9994           0
     19484 WT1      6329     TIP3     H1       HT       0.417000        1.0080           0
     19485 WT1      6329     TIP3     H2       HT       0.417000        1.0080           0
     19486 WT1      6330     TIP3     OH2      OT      -0.834000       15.9994           0
     19487 WT1      6330     TIP3     H1       HT       0.417000        1.0080           0
     19488 WT1      6330     TIP3     H2       HT       0.417000        1.0080           0
     19489 WT1      6331     TIP3     OH2      OT      -0.834000       15.9994           0
     19490 WT1      6331     TIP3     H1       HT       0.417000        1.0080           0
     19491 WT1      6331     TIP3     H2       HT       0.417000        1.0080           0
     19492 WT1      6332     TIP3     OH2      OT      -0.834000       15.9994           0
     19493 WT1      6332     TIP3     H1       HT       0.417000        1.0080           0
     19494 WT1      6332     TIP3     H2       HT       0.417000        1.0080           0
     19495 WT1      6333     TIP3     OH2      OT      -0.834000       15.9994           0
     19496 WT1      6333     TIP3     H1       HT       0.417000        1.0080           0
     19497 WT1      6333     TIP3     H2       HT       0.417000        1.0080           0
     19498 WT1      6334     TIP3     OH2      OT      -0.834000       15.9994           0
     19499 WT1      6334     TIP3     H1       HT       0.417000        1.0080           0
     19500 WT1      6334     TIP3     H2       HT       0.417000        1.0080           0
     19501 WT1      6335     TIP3     OH2      OT      -0.834000       15.9994           0
     19502 WT1      6335     TIP3     H1       HT       0.417000        1.0080           0
     19503 WT1      6335     TIP3     H2       HT       0.417000        1.0080           0
     19504 WT1      6336     TIP3     OH2      OT      -0.834000       15.9994           0
     19505 WT1      6336     TIP3     H1       HT       0.417000        1.0080           0
     19506 WT1      6336     TIP3     H2       HT       0.417000        1.0080           0
     19507 WT1      6337     TIP3     OH2      OT      -0.834000       15.9994           0
     19508 WT1      6337     TIP3     H1       HT       0.417000        1.0080           0
     19509 WT1      6337     TIP3     H2       HT       0.417000        1.0080           0
     19510 WT1      6338     TIP3     OH2      OT      -0.834000       15.9994           0
     19511 WT1      6338     TIP3     H1       HT       0.417000        1.0080           0
     19512 WT1      6338     TIP3     H2       HT       0.417000        1.0080           0
     19513 WT1      6339     TIP3     OH2      OT      -0.834000       15.9994           0
     19514 WT1      6339     TIP3     H1       HT       0.417000        1.0080           0
     19515 WT1      6339     TIP3     H2       HT       0.417000        1.0080           0
     19516 WT1      6340     TIP3     OH2      OT      -0.834000       15.9994           0
     19517 WT1      6340     TIP3     H1       HT       0.417000        1.0080           0
     19518 WT1      6340     TIP3     H2       HT       0.417000        1.0080           0
     19519 WT1      6341     TIP3     OH2      OT      -0.834000       15.9994           0
     19520 WT1      6341     TIP3     H1       HT       0.417000        1.0080           0
     19521 WT1      6341     TIP3     H2       HT       0.417000        1.0080           0
     19522 WT1      6342     TIP3     OH2      OT      -0.834000       15.9994           0
     19523 WT1      6342     TIP3     H1       HT       0.417000        1.0080           0
     19524 WT1      6342     TIP3     H2       HT       0.417000        1.0080           0
     19525 WT1      6343     TIP3     OH2      OT      -0.834000       15.9994           0
     19526 WT1      6343     TIP3     H1       HT       0.417000        1.0080           0
     19527 WT1      6343     TIP3     H2       HT       0.417000        1.0080           0
     19528 WT1      6344     TIP3     OH2      OT      -0.834000       15.9994           0
     19529 WT1      6344     TIP3     H1       HT       0.417000        1.0080           0
     19530 WT1      6344     TIP3     H2       HT       0.417000        1.0080           0
     19531 WT1      6345     TIP3     OH2      OT      -0.834000       15.9994           0
     19532 WT1      6345     TIP3     H1       HT       0.417000        1.0080           0
     19533 WT1      6345     TIP3     H2       HT       0.417000        1.0080           0
     19534 WT1      6346     TIP3     OH2      OT      -0.834000       15.9994           0
     19535 WT1      6346     TIP3     H1       HT       0.417000        1.0080           0
     19536 WT1      6346     TIP3     H2       HT       0.417000        1.0080           0
     19537 WT1      6347     TIP3     OH2      OT      -0.834000       15.9994           0
     19538 WT1      6347     TIP3     H1       HT       0.417000        1.0080           0
     19539 WT1      6347     TIP3     H2       HT       0.417000        1.0080           0
     19540 WT1      6348     TIP3     OH2      OT      -0.834000       15.9994           0
     19541 WT1      6348     TIP3     H1       HT       0.417000        1.0080           0
     19542 WT1      6348     TIP3     H2       HT       0.417000        1.0080           0
     19543 WT1      6349     TIP3     OH2      OT      -0.834000       15.9994           0
     19544 WT1      6349     TIP3     H1       HT       0.417000        1.0080           0
     19545 WT1      6349     TIP3     H2       HT       0.417000        1.0080           0
     19546 WT1      6351     TIP3     OH2      OT      -0.834000       15.9994           0
     19547 WT1      6351     TIP3     H1       HT       0.417000        1.0080           0
     19548 WT1      6351     TIP3     H2       HT       0.417000        1.0080           0
     19549 WT1      6352     TIP3     OH2      OT      -0.834000       15.9994           0
     19550 WT1      6352     TIP3     H1       HT       0.417000        1.0080           0
     19551 WT1      6352     TIP3     H2       HT       0.417000        1.0080           0
     19552 WT1      6353     TIP3     OH2      OT      -0.834000       15.9994           0
     19553 WT1      6353     TIP3     H1       HT       0.417000        1.0080           0
     19554 WT1      6353     TIP3     H2       HT       0.417000        1.0080           0
     19555 WT1      6354     TIP3     OH2      OT      -0.834000       15.9994           0
     19556 WT1      6354     TIP3     H1       HT       0.417000        1.0080           0
     19557 WT1      6354     TIP3     H2       HT       0.417000        1.0080           0
     19558 WT1      6355     TIP3     OH2      OT      -0.834000       15.9994           0
     19559 WT1      6355     TIP3     H1       HT       0.417000        1.0080           0
     19560 WT1      6355     TIP3     H2       HT       0.417000        1.0080           0
     19561 WT1      6356     TIP3     OH2      OT      -0.834000       15.9994           0
     19562 WT1      6356     TIP3     H1       HT       0.417000        1.0080           0
     19563 WT1      6356     TIP3     H2       HT       0.417000        1.0080           0
     19564 WT1      6357     TIP3     OH2      OT      -0.834000       15.9994           0
     19565 WT1      6357     TIP3     H1       HT       0.417000        1.0080           0
     19566 WT1      6357     TIP3     H2       HT       0.417000        1.0080           0
     19567 WT1      6358     TIP3     OH2      OT      -0.834000       15.9994           0
     19568 WT1      6358     TIP3     H1       HT       0.417000        1.0080           0
     19569 WT1      6358     TIP3     H2       HT       0.417000        1.0080           0
     19570 WT1      6359     TIP3     OH2      OT      -0.834000       15.9994           0
     19571 WT1      6359     TIP3     H1       HT       0.417000        1.0080           0
     19572 WT1      6359     TIP3     H2       HT       0.417000        1.0080           0
     19573 WT1      6360     TIP3     OH2      OT      -0.834000       15.9994           0
     19574 WT1      6360     TIP3     H1       HT       0.417000        1.0080           0
     19575 WT1      6360     TIP3     H2       HT       0.417000        1.0080           0
     19576 WT1      6361     TIP3     OH2      OT      -0.834000       15.9994           0
     19577 WT1      6361     TIP3     H1       HT       0.417000        1.0080           0
     19578 WT1      6361     TIP3     H2       HT       0.417000        1.0080           0
     19579 WT1      6362     TIP3     OH2      OT      -0.834000       15.9994           0
     19580 WT1      6362     TIP3     H1       HT       0.417000        1.0080           0
     19581 WT1      6362     TIP3     H2       HT       0.417000        1.0080           0
     19582 WT1      6363     TIP3     OH2      OT      -0.834000       15.9994           0
     19583 WT1      6363     TIP3     H1       HT       0.417000        1.0080           0
     19584 WT1      6363     TIP3     H2       HT       0.417000        1.0080           0
     19585 WT1      6364     TIP3     OH2      OT      -0.834000       15.9994           0
     19586 WT1      6364     TIP3     H1       HT       0.417000        1.0080           0
     19587 WT1      6364     TIP3     H2       HT       0.417000        1.0080           0
     19588 WT1      6365     TIP3     OH2      OT      -0.834000       15.9994           0
     19589 WT1      6365     TIP3     H1       HT       0.417000        1.0080           0
     19590 WT1      6365     TIP3     H2       HT       0.417000        1.0080           0
     19591 WT1      6366     TIP3     OH2      OT      -0.834000       15.9994           0
     19592 WT1      6366     TIP3     H1       HT       0.417000        1.0080           0
     19593 WT1      6366     TIP3     H2       HT       0.417000        1.0080           0
     19594 WT1      6367     TIP3     OH2      OT      -0.834000       15.9994           0
     19595 WT1      6367     TIP3     H1       HT       0.417000        1.0080           0
     19596 WT1      6367     TIP3     H2       HT       0.417000        1.0080           0
     19597 WT1      6368     TIP3     OH2      OT      -0.834000       15.9994           0
     19598 WT1      6368     TIP3     H1       HT       0.417000        1.0080           0
     19599 WT1      6368     TIP3     H2       HT       0.417000        1.0080           0
     19600 WT1      6369     TIP3     OH2      OT      -0.834000       15.9994           0
     19601 WT1      6369     TIP3     H1       HT       0.417000        1.0080           0
     19602 WT1      6369     TIP3     H2       HT       0.417000        1.0080           0
     19603 WT1      6370     TIP3     OH2      OT      -0.834000       15.9994           0
     19604 WT1      6370     TIP3     H1       HT       0.417000        1.0080           0
     19605 WT1      6370     TIP3     H2       HT       0.417000        1.0080           0
     19606 WT1      6371     TIP3     OH2      OT      -0.834000       15.9994           0
     19607 WT1      6371     TIP3     H1       HT       0.417000        1.0080           0
     19608 WT1      6371     TIP3     H2       HT       0.417000        1.0080           0
     19609 WT1      6372     TIP3     OH2      OT      -0.834000       15.9994           0
     19610 WT1      6372     TIP3     H1       HT       0.417000        1.0080           0
     19611 WT1      6372     TIP3     H2       HT       0.417000        1.0080           0
     19612 WT1      6373     TIP3     OH2      OT      -0.834000       15.9994           0
     19613 WT1      6373     TIP3     H1       HT       0.417000        1.0080           0
     19614 WT1      6373     TIP3     H2       HT       0.417000        1.0080           0
     19615 WT1      6374     TIP3     OH2      OT      -0.834000       15.9994           0
     19616 WT1      6374     TIP3     H1       HT       0.417000        1.0080           0
     19617 WT1      6374     TIP3     H2       HT       0.417000        1.0080           0
     19618 WT1      6375     TIP3     OH2      OT      -0.834000       15.9994           0
     19619 WT1      6375     TIP3     H1       HT       0.417000        1.0080           0
     19620 WT1      6375     TIP3     H2       HT       0.417000        1.0080           0
     19621 WT1      6376     TIP3     OH2      OT      -0.834000       15.9994           0
     19622 WT1      6376     TIP3     H1       HT       0.417000        1.0080           0
     19623 WT1      6376     TIP3     H2       HT       0.417000        1.0080           0
     19624 WT1      6377     TIP3     OH2      OT      -0.834000       15.9994           0
     19625 WT1      6377     TIP3     H1       HT       0.417000        1.0080           0
     19626 WT1      6377     TIP3     H2       HT       0.417000        1.0080           0
     19627 WT1      6378     TIP3     OH2      OT      -0.834000       15.9994           0
     19628 WT1      6378     TIP3     H1       HT       0.417000        1.0080           0
     19629 WT1      6378     TIP3     H2       HT       0.417000        1.0080           0
     19630 WT1      6379     TIP3     OH2      OT      -0.834000       15.9994           0
     19631 WT1      6379     TIP3     H1       HT       0.417000        1.0080           0
     19632 WT1      6379     TIP3     H2       HT       0.417000        1.0080           0
     19633 WT1      6380     TIP3     OH2      OT      -0.834000       15.9994           0
     19634 WT1      6380     TIP3     H1       HT       0.417000        1.0080           0
     19635 WT1      6380     TIP3     H2       HT       0.417000        1.0080           0
     19636 WT1      6381     TIP3     OH2      OT      -0.834000       15.9994           0
     19637 WT1      6381     TIP3     H1       HT       0.417000        1.0080           0
     19638 WT1      6381     TIP3     H2       HT       0.417000        1.0080           0
     19639 WT1      6382     TIP3     OH2      OT      -0.834000       15.9994           0
     19640 WT1      6382     TIP3     H1       HT       0.417000        1.0080           0
     19641 WT1      6382     TIP3     H2       HT       0.417000        1.0080           0
     19642 WT1      6383     TIP3     OH2      OT      -0.834000       15.9994           0
     19643 WT1      6383     TIP3     H1       HT       0.417000        1.0080           0
     19644 WT1      6383     TIP3     H2       HT       0.417000        1.0080           0
     19645 WT1      6384     TIP3     OH2      OT      -0.834000       15.9994           0
     19646 WT1      6384     TIP3     H1       HT       0.417000        1.0080           0
     19647 WT1      6384     TIP3     H2       HT       0.417000        1.0080           0
     19648 WT1      6385     TIP3     OH2      OT      -0.834000       15.9994           0
     19649 WT1      6385     TIP3     H1       HT       0.417000        1.0080           0
     19650 WT1      6385     TIP3     H2       HT       0.417000        1.0080           0
     19651 WT1      6386     TIP3     OH2      OT      -0.834000       15.9994           0
     19652 WT1      6386     TIP3     H1       HT       0.417000        1.0080           0
     19653 WT1      6386     TIP3     H2       HT       0.417000        1.0080           0
     19654 WT1      6387     TIP3     OH2      OT      -0.834000       15.9994           0
     19655 WT1      6387     TIP3     H1       HT       0.417000        1.0080           0
     19656 WT1      6387     TIP3     H2       HT       0.417000        1.0080           0
     19657 WT1      6388     TIP3     OH2      OT      -0.834000       15.9994           0
     19658 WT1      6388     TIP3     H1       HT       0.417000        1.0080           0
     19659 WT1      6388     TIP3     H2       HT       0.417000        1.0080           0
     19660 WT1      6389     TIP3     OH2      OT      -0.834000       15.9994           0
     19661 WT1      6389     TIP3     H1       HT       0.417000        1.0080           0
     19662 WT1      6389     TIP3     H2       HT       0.417000        1.0080           0
     19663 WT1      6390     TIP3     OH2      OT      -0.834000       15.9994           0
     19664 WT1      6390     TIP3     H1       HT       0.417000        1.0080           0
     19665 WT1      6390     TIP3     H2       HT       0.417000        1.0080           0
     19666 WT1      6391     TIP3     OH2      OT      -0.834000       15.9994           0
     19667 WT1      6391     TIP3     H1       HT       0.417000        1.0080           0
     19668 WT1      6391     TIP3     H2       HT       0.417000        1.0080           0
     19669 WT1      6392     TIP3     OH2      OT      -0.834000       15.9994           0
     19670 WT1      6392     TIP3     H1       HT       0.417000        1.0080           0
     19671 WT1      6392     TIP3     H2       HT       0.417000        1.0080           0
     19672 WT1      6393     TIP3     OH2      OT      -0.834000       15.9994           0
     19673 WT1      6393     TIP3     H1       HT       0.417000        1.0080           0
     19674 WT1      6393     TIP3     H2       HT       0.417000        1.0080           0
     19675 WT1      6394     TIP3     OH2      OT      -0.834000       15.9994           0
     19676 WT1      6394     TIP3     H1       HT       0.417000        1.0080           0
     19677 WT1      6394     TIP3     H2       HT       0.417000        1.0080           0
     19678 WT1      6395     TIP3     OH2      OT      -0.834000       15.9994           0
     19679 WT1      6395     TIP3     H1       HT       0.417000        1.0080           0
     19680 WT1      6395     TIP3     H2       HT       0.417000        1.0080           0
     19681 WT1      6396     TIP3     OH2      OT      -0.834000       15.9994           0
     19682 WT1      6396     TIP3     H1       HT       0.417000        1.0080           0
     19683 WT1      6396     TIP3     H2       HT       0.417000        1.0080           0
     19684 WT1      6397     TIP3     OH2      OT      -0.834000       15.9994           0
     19685 WT1      6397     TIP3     H1       HT       0.417000        1.0080           0
     19686 WT1      6397     TIP3     H2       HT       0.417000        1.0080           0
     19687 WT1      6398     TIP3     OH2      OT      -0.834000       15.9994           0
     19688 WT1      6398     TIP3     H1       HT       0.417000        1.0080           0
     19689 WT1      6398     TIP3     H2       HT       0.417000        1.0080           0
     19690 WT1      6399     TIP3     OH2      OT      -0.834000       15.9994           0
     19691 WT1      6399     TIP3     H1       HT       0.417000        1.0080           0
     19692 WT1      6399     TIP3     H2       HT       0.417000        1.0080           0
     19693 WT1      6400     TIP3     OH2      OT      -0.834000       15.9994           0
     19694 WT1      6400     TIP3     H1       HT       0.417000        1.0080           0
     19695 WT1      6400     TIP3     H2       HT       0.417000        1.0080           0
     19696 WT1      6401     TIP3     OH2      OT      -0.834000       15.9994           0
     19697 WT1      6401     TIP3     H1       HT       0.417000        1.0080           0
     19698 WT1      6401     TIP3     H2       HT       0.417000        1.0080           0
     19699 WT1      6402     TIP3     OH2      OT      -0.834000       15.9994           0
     19700 WT1      6402     TIP3     H1       HT       0.417000        1.0080           0
     19701 WT1      6402     TIP3     H2       HT       0.417000        1.0080           0
     19702 WT1      6403     TIP3     OH2      OT      -0.834000       15.9994           0
     19703 WT1      6403     TIP3     H1       HT       0.417000        1.0080           0
     19704 WT1      6403     TIP3     H2       HT       0.417000        1.0080           0
     19705 WT1      6404     TIP3     OH2      OT      -0.834000       15.9994           0
     19706 WT1      6404     TIP3     H1       HT       0.417000        1.0080           0
     19707 WT1      6404     TIP3     H2       HT       0.417000        1.0080           0
     19708 WT1      6405     TIP3     OH2      OT      -0.834000       15.9994           0
     19709 WT1      6405     TIP3     H1       HT       0.417000        1.0080           0
     19710 WT1      6405     TIP3     H2       HT       0.417000        1.0080           0
     19711 WT1      6406     TIP3     OH2      OT      -0.834000       15.9994           0
     19712 WT1      6406     TIP3     H1       HT       0.417000        1.0080           0
     19713 WT1      6406     TIP3     H2       HT       0.417000        1.0080           0
     19714 WT1      6407     TIP3     OH2      OT      -0.834000       15.9994           0
     19715 WT1      6407     TIP3     H1       HT       0.417000        1.0080           0
     19716 WT1      6407     TIP3     H2       HT       0.417000        1.0080           0
     19717 WT1      6408     TIP3     OH2      OT      -0.834000       15.9994           0
     19718 WT1      6408     TIP3     H1       HT       0.417000        1.0080           0
     19719 WT1      6408     TIP3     H2       HT       0.417000        1.0080           0
     19720 WT1      6409     TIP3     OH2      OT      -0.834000       15.9994           0
     19721 WT1      6409     TIP3     H1       HT       0.417000        1.0080           0
     19722 WT1      6409     TIP3     H2       HT       0.417000        1.0080           0
     19723 WT1      6410     TIP3     OH2      OT      -0.834000       15.9994           0
     19724 WT1      6410     TIP3     H1       HT       0.417000        1.0080           0
     19725 WT1      6410     TIP3     H2       HT       0.417000        1.0080           0
     19726 WT1      6411     TIP3     OH2      OT      -0.834000       15.9994           0
     19727 WT1      6411     TIP3     H1       HT       0.417000        1.0080           0
     19728 WT1      6411     TIP3     H2       HT       0.417000        1.0080           0
     19729 WT1      6412     TIP3     OH2      OT      -0.834000       15.9994           0
     19730 WT1      6412     TIP3     H1       HT       0.417000        1.0080           0
     19731 WT1      6412     TIP3     H2       HT       0.417000        1.0080           0
     19732 WT1      6413     TIP3     OH2      OT      -0.834000       15.9994           0
     19733 WT1      6413     TIP3     H1       HT       0.417000        1.0080           0
     19734 WT1      6413     TIP3     H2       HT       0.417000        1.0080           0
     19735 WT1      6414     TIP3     OH2      OT      -0.834000       15.9994           0
     19736 WT1      6414     TIP3     H1       HT       0.417000        1.0080           0
     19737 WT1      6414     TIP3     H2       HT       0.417000        1.0080           0
     19738 WT1      6415     TIP3     OH2      OT      -0.834000       15.9994           0
     19739 WT1      6415     TIP3     H1       HT       0.417000        1.0080           0
     19740 WT1      6415     TIP3     H2       HT       0.417000        1.0080           0
     19741 WT1      6416     TIP3     OH2      OT      -0.834000       15.9994           0
     19742 WT1      6416     TIP3     H1       HT       0.417000        1.0080           0
     19743 WT1      6416     TIP3     H2       HT       0.417000        1.0080           0
     19744 WT1      6417     TIP3     OH2      OT      -0.834000       15.9994           0
     19745 WT1      6417     TIP3     H1       HT       0.417000        1.0080           0
     19746 WT1      6417     TIP3     H2       HT       0.417000        1.0080           0
     19747 WT1      6418     TIP3     OH2      OT      -0.834000       15.9994           0
     19748 WT1      6418     TIP3     H1       HT       0.417000        1.0080           0
     19749 WT1      6418     TIP3     H2       HT       0.417000        1.0080           0
     19750 WT1      6419     TIP3     OH2      OT      -0.834000       15.9994           0
     19751 WT1      6419     TIP3     H1       HT       0.417000        1.0080           0
     19752 WT1      6419     TIP3     H2       HT       0.417000        1.0080           0
     19753 WT1      6420     TIP3     OH2      OT      -0.834000       15.9994           0
     19754 WT1      6420     TIP3     H1       HT       0.417000        1.0080           0
     19755 WT1      6420     TIP3     H2       HT       0.417000        1.0080           0
     19756 WT1      6421     TIP3     OH2      OT      -0.834000       15.9994           0
     19757 WT1      6421     TIP3     H1       HT       0.417000        1.0080           0
     19758 WT1      6421     TIP3     H2       HT       0.417000        1.0080           0
     19759 WT1      6422     TIP3     OH2      OT      -0.834000       15.9994           0
     19760 WT1      6422     TIP3     H1       HT       0.417000        1.0080           0
     19761 WT1      6422     TIP3     H2       HT       0.417000        1.0080           0
     19762 WT1      6423     TIP3     OH2      OT      -0.834000       15.9994           0
     19763 WT1      6423     TIP3     H1       HT       0.417000        1.0080           0
     19764 WT1      6423     TIP3     H2       HT       0.417000        1.0080           0
     19765 WT1      6424     TIP3     OH2      OT      -0.834000       15.9994           0
     19766 WT1      6424     TIP3     H1       HT       0.417000        1.0080           0
     19767 WT1      6424     TIP3     H2       HT       0.417000        1.0080           0
     19768 WT1      6425     TIP3     OH2      OT      -0.834000       15.9994           0
     19769 WT1      6425     TIP3     H1       HT       0.417000        1.0080           0
     19770 WT1      6425     TIP3     H2       HT       0.417000        1.0080           0
     19771 WT1      6426     TIP3     OH2      OT      -0.834000       15.9994           0
     19772 WT1      6426     TIP3     H1       HT       0.417000        1.0080           0
     19773 WT1      6426     TIP3     H2       HT       0.417000        1.0080           0
     19774 WT1      6427     TIP3     OH2      OT      -0.834000       15.9994           0
     19775 WT1      6427     TIP3     H1       HT       0.417000        1.0080           0
     19776 WT1      6427     TIP3     H2       HT       0.417000        1.0080           0
     19777 WT1      6428     TIP3     OH2      OT      -0.834000       15.9994           0
     19778 WT1      6428     TIP3     H1       HT       0.417000        1.0080           0
     19779 WT1      6428     TIP3     H2       HT       0.417000        1.0080           0
     19780 WT1      6429     TIP3     OH2      OT      -0.834000       15.9994           0
     19781 WT1      6429     TIP3     H1       HT       0.417000        1.0080           0
     19782 WT1      6429     TIP3     H2       HT       0.417000        1.0080           0
     19783 WT1      6430     TIP3     OH2      OT      -0.834000       15.9994           0
     19784 WT1      6430     TIP3     H1       HT       0.417000        1.0080           0
     19785 WT1      6430     TIP3     H2       HT       0.417000        1.0080           0
     19786 WT1      6431     TIP3     OH2      OT      -0.834000       15.9994           0
     19787 WT1      6431     TIP3     H1       HT       0.417000        1.0080           0
     19788 WT1      6431     TIP3     H2       HT       0.417000        1.0080           0
     19789 WT1      6432     TIP3     OH2      OT      -0.834000       15.9994           0
     19790 WT1      6432     TIP3     H1       HT       0.417000        1.0080           0
     19791 WT1      6432     TIP3     H2       HT       0.417000        1.0080           0
     19792 WT1      6433     TIP3     OH2      OT      -0.834000       15.9994           0
     19793 WT1      6433     TIP3     H1       HT       0.417000        1.0080           0
     19794 WT1      6433     TIP3     H2       HT       0.417000        1.0080           0
     19795 WT1      6434     TIP3     OH2      OT      -0.834000       15.9994           0
     19796 WT1      6434     TIP3     H1       HT       0.417000        1.0080           0
     19797 WT1      6434     TIP3     H2       HT       0.417000        1.0080           0
     19798 WT1      6435     TIP3     OH2      OT      -0.834000       15.9994           0
     19799 WT1      6435     TIP3     H1       HT       0.417000        1.0080           0
     19800 WT1      6435     TIP3     H2       HT       0.417000        1.0080           0
     19801 WT1      6436     TIP3     OH2      OT      -0.834000       15.9994           0
     19802 WT1      6436     TIP3     H1       HT       0.417000        1.0080           0
     19803 WT1      6436     TIP3     H2       HT       0.417000        1.0080           0
     19804 WT1      6437     TIP3     OH2      OT      -0.834000       15.9994           0
     19805 WT1      6437     TIP3     H1       HT       0.417000        1.0080           0
     19806 WT1      6437     TIP3     H2       HT       0.417000        1.0080           0
     19807 WT1      6438     TIP3     OH2      OT      -0.834000       15.9994           0
     19808 WT1      6438     TIP3     H1       HT       0.417000        1.0080           0
     19809 WT1      6438     TIP3     H2       HT       0.417000        1.0080           0
     19810 WT1      6439     TIP3     OH2      OT      -0.834000       15.9994           0
     19811 WT1      6439     TIP3     H1       HT       0.417000        1.0080           0
     19812 WT1      6439     TIP3     H2       HT       0.417000        1.0080           0
     19813 WT1      6440     TIP3     OH2      OT      -0.834000       15.9994           0
     19814 WT1      6440     TIP3     H1       HT       0.417000        1.0080           0
     19815 WT1      6440     TIP3     H2       HT       0.417000        1.0080           0
     19816 WT1      6441     TIP3     OH2      OT      -0.834000       15.9994           0
     19817 WT1      6441     TIP3     H1       HT       0.417000        1.0080           0
     19818 WT1      6441     TIP3     H2       HT       0.417000        1.0080           0
     19819 WT1      6442     TIP3     OH2      OT      -0.834000       15.9994           0
     19820 WT1      6442     TIP3     H1       HT       0.417000        1.0080           0
     19821 WT1      6442     TIP3     H2       HT       0.417000        1.0080           0
     19822 WT1      6443     TIP3     OH2      OT      -0.834000       15.9994           0
     19823 WT1      6443     TIP3     H1       HT       0.417000        1.0080           0
     19824 WT1      6443     TIP3     H2       HT       0.417000        1.0080           0
     19825 WT1      6444     TIP3     OH2      OT      -0.834000       15.9994           0
     19826 WT1      6444     TIP3     H1       HT       0.417000        1.0080           0
     19827 WT1      6444     TIP3     H2       HT       0.417000        1.0080           0
     19828 WT1      6445     TIP3     OH2      OT      -0.834000       15.9994           0
     19829 WT1      6445     TIP3     H1       HT       0.417000        1.0080           0
     19830 WT1      6445     TIP3     H2       HT       0.417000        1.0080           0
     19831 WT1      6446     TIP3     OH2      OT      -0.834000       15.9994           0
     19832 WT1      6446     TIP3     H1       HT       0.417000        1.0080           0
     19833 WT1      6446     TIP3     H2       HT       0.417000        1.0080           0
     19834 WT1      6447     TIP3     OH2      OT      -0.834000       15.9994           0
     19835 WT1      6447     TIP3     H1       HT       0.417000        1.0080           0
     19836 WT1      6447     TIP3     H2       HT       0.417000        1.0080           0
     19837 WT1      6448     TIP3     OH2      OT      -0.834000       15.9994           0
     19838 WT1      6448     TIP3     H1       HT       0.417000        1.0080           0
     19839 WT1      6448     TIP3     H2       HT       0.417000        1.0080           0
     19840 WT1      6449     TIP3     OH2      OT      -0.834000       15.9994           0
     19841 WT1      6449     TIP3     H1       HT       0.417000        1.0080           0
     19842 WT1      6449     TIP3     H2       HT       0.417000        1.0080           0
     19843 WT1      6450     TIP3     OH2      OT      -0.834000       15.9994           0
     19844 WT1      6450     TIP3     H1       HT       0.417000        1.0080           0
     19845 WT1      6450     TIP3     H2       HT       0.417000        1.0080           0
     19846 WT1      6451     TIP3     OH2      OT      -0.834000       15.9994           0
     19847 WT1      6451     TIP3     H1       HT       0.417000        1.0080           0
     19848 WT1      6451     TIP3     H2       HT       0.417000        1.0080           0
     19849 WT1      6452     TIP3     OH2      OT      -0.834000       15.9994           0
     19850 WT1      6452     TIP3     H1       HT       0.417000        1.0080           0
     19851 WT1      6452     TIP3     H2       HT       0.417000        1.0080           0
     19852 WT1      6453     TIP3     OH2      OT      -0.834000       15.9994           0
     19853 WT1      6453     TIP3     H1       HT       0.417000        1.0080           0
     19854 WT1      6453     TIP3     H2       HT       0.417000        1.0080           0
     19855 WT1      6454     TIP3     OH2      OT      -0.834000       15.9994           0
     19856 WT1      6454     TIP3     H1       HT       0.417000        1.0080           0
     19857 WT1      6454     TIP3     H2       HT       0.417000        1.0080           0
     19858 WT1      6455     TIP3     OH2      OT      -0.834000       15.9994           0
     19859 WT1      6455     TIP3     H1       HT       0.417000        1.0080           0
     19860 WT1      6455     TIP3     H2       HT       0.417000        1.0080           0
     19861 WT1      6456     TIP3     OH2      OT      -0.834000       15.9994           0
     19862 WT1      6456     TIP3     H1       HT       0.417000        1.0080           0
     19863 WT1      6456     TIP3     H2       HT       0.417000        1.0080           0
     19864 WT1      6457     TIP3     OH2      OT      -0.834000       15.9994           0
     19865 WT1      6457     TIP3     H1       HT       0.417000        1.0080           0
     19866 WT1      6457     TIP3     H2       HT       0.417000        1.0080           0
     19867 WT1      6458     TIP3     OH2      OT      -0.834000       15.9994           0
     19868 WT1      6458     TIP3     H1       HT       0.417000        1.0080           0
     19869 WT1      6458     TIP3     H2       HT       0.417000        1.0080           0
     19870 WT1      6459     TIP3     OH2      OT      -0.834000       15.9994           0
     19871 WT1      6459     TIP3     H1       HT       0.417000        1.0080           0
     19872 WT1      6459     TIP3     H2       HT       0.417000        1.0080           0
     19873 WT1      6460     TIP3     OH2      OT      -0.834000       15.9994           0
     19874 WT1      6460     TIP3     H1       HT       0.417000        1.0080           0
     19875 WT1      6460     TIP3     H2       HT       0.417000        1.0080           0
     19876 WT1      6461     TIP3     OH2      OT      -0.834000       15.9994           0
     19877 WT1      6461     TIP3     H1       HT       0.417000        1.0080           0
     19878 WT1      6461     TIP3     H2       HT       0.417000        1.0080           0
     19879 WT1      6462     TIP3     OH2      OT      -0.834000       15.9994           0
     19880 WT1      6462     TIP3     H1       HT       0.417000        1.0080           0
     19881 WT1      6462     TIP3     H2       HT       0.417000        1.0080           0
     19882 WT1      6463     TIP3     OH2      OT      -0.834000       15.9994           0
     19883 WT1      6463     TIP3     H1       HT       0.417000        1.0080           0
     19884 WT1      6463     TIP3     H2       HT       0.417000        1.0080           0
     19885 WT1      6464     TIP3     OH2      OT      -0.834000       15.9994           0
     19886 WT1      6464     TIP3     H1       HT       0.417000        1.0080           0
     19887 WT1      6464     TIP3     H2       HT       0.417000        1.0080           0
     19888 WT1      6465     TIP3     OH2      OT      -0.834000       15.9994           0
     19889 WT1      6465     TIP3     H1       HT       0.417000        1.0080           0
     19890 WT1      6465     TIP3     H2       HT       0.417000        1.0080           0
     19891 WT1      6466     TIP3     OH2      OT      -0.834000       15.9994           0
     19892 WT1      6466     TIP3     H1       HT       0.417000        1.0080           0
     19893 WT1      6466     TIP3     H2       HT       0.417000        1.0080           0
     19894 WT1      6467     TIP3     OH2      OT      -0.834000       15.9994           0
     19895 WT1      6467     TIP3     H1       HT       0.417000        1.0080           0
     19896 WT1      6467     TIP3     H2       HT       0.417000        1.0080           0
     19897 WT1      6468     TIP3     OH2      OT      -0.834000       15.9994           0
     19898 WT1      6468     TIP3     H1       HT       0.417000        1.0080           0
     19899 WT1      6468     TIP3     H2       HT       0.417000        1.0080           0
     19900 WT1      6469     TIP3     OH2      OT      -0.834000       15.9994           0
     19901 WT1      6469     TIP3     H1       HT       0.417000        1.0080           0
     19902 WT1      6469     TIP3     H2       HT       0.417000        1.0080           0
     19903 WT1      6470     TIP3     OH2      OT      -0.834000       15.9994           0
     19904 WT1      6470     TIP3     H1       HT       0.417000        1.0080           0
     19905 WT1      6470     TIP3     H2       HT       0.417000        1.0080           0
     19906 WT1      6471     TIP3     OH2      OT      -0.834000       15.9994           0
     19907 WT1      6471     TIP3     H1       HT       0.417000        1.0080           0
     19908 WT1      6471     TIP3     H2       HT       0.417000        1.0080           0
     19909 WT1      6472     TIP3     OH2      OT      -0.834000       15.9994           0
     19910 WT1      6472     TIP3     H1       HT       0.417000        1.0080           0
     19911 WT1      6472     TIP3     H2       HT       0.417000        1.0080           0
     19912 WT1      6474     TIP3     OH2      OT      -0.834000       15.9994           0
     19913 WT1      6474     TIP3     H1       HT       0.417000        1.0080           0
     19914 WT1      6474     TIP3     H2       HT       0.417000        1.0080           0
     19915 WT1      6475     TIP3     OH2      OT      -0.834000       15.9994           0
     19916 WT1      6475     TIP3     H1       HT       0.417000        1.0080           0
     19917 WT1      6475     TIP3     H2       HT       0.417000        1.0080           0
     19918 WT1      6476     TIP3     OH2      OT      -0.834000       15.9994           0
     19919 WT1      6476     TIP3     H1       HT       0.417000        1.0080           0
     19920 WT1      6476     TIP3     H2       HT       0.417000        1.0080           0
     19921 WT1      6477     TIP3     OH2      OT      -0.834000       15.9994           0
     19922 WT1      6477     TIP3     H1       HT       0.417000        1.0080           0
     19923 WT1      6477     TIP3     H2       HT       0.417000        1.0080           0
     19924 WT1      6478     TIP3     OH2      OT      -0.834000       15.9994           0
     19925 WT1      6478     TIP3     H1       HT       0.417000        1.0080           0
     19926 WT1      6478     TIP3     H2       HT       0.417000        1.0080           0
     19927 WT1      6479     TIP3     OH2      OT      -0.834000       15.9994           0
     19928 WT1      6479     TIP3     H1       HT       0.417000        1.0080           0
     19929 WT1      6479     TIP3     H2       HT       0.417000        1.0080           0
     19930 WT1      6480     TIP3     OH2      OT      -0.834000       15.9994           0
     19931 WT1      6480     TIP3     H1       HT       0.417000        1.0080           0
     19932 WT1      6480     TIP3     H2       HT       0.417000        1.0080           0
     19933 WT1      6481     TIP3     OH2      OT      -0.834000       15.9994           0
     19934 WT1      6481     TIP3     H1       HT       0.417000        1.0080           0
     19935 WT1      6481     TIP3     H2       HT       0.417000        1.0080           0
     19936 WT1      6482     TIP3     OH2      OT      -0.834000       15.9994           0
     19937 WT1      6482     TIP3     H1       HT       0.417000        1.0080           0
     19938 WT1      6482     TIP3     H2       HT       0.417000        1.0080           0
     19939 WT1      6483     TIP3     OH2      OT      -0.834000       15.9994           0
     19940 WT1      6483     TIP3     H1       HT       0.417000        1.0080           0
     19941 WT1      6483     TIP3     H2       HT       0.417000        1.0080           0
     19942 WT1      6484     TIP3     OH2      OT      -0.834000       15.9994           0
     19943 WT1      6484     TIP3     H1       HT       0.417000        1.0080           0
     19944 WT1      6484     TIP3     H2       HT       0.417000        1.0080           0
     19945 WT1      6485     TIP3     OH2      OT      -0.834000       15.9994           0
     19946 WT1      6485     TIP3     H1       HT       0.417000        1.0080           0
     19947 WT1      6485     TIP3     H2       HT       0.417000        1.0080           0
     19948 WT1      6486     TIP3     OH2      OT      -0.834000       15.9994           0
     19949 WT1      6486     TIP3     H1       HT       0.417000        1.0080           0
     19950 WT1      6486     TIP3     H2       HT       0.417000        1.0080           0
     19951 WT1      6487     TIP3     OH2      OT      -0.834000       15.9994           0
     19952 WT1      6487     TIP3     H1       HT       0.417000        1.0080           0
     19953 WT1      6487     TIP3     H2       HT       0.417000        1.0080           0
     19954 WT1      6488     TIP3     OH2      OT      -0.834000       15.9994           0
     19955 WT1      6488     TIP3     H1       HT       0.417000        1.0080           0
     19956 WT1      6488     TIP3     H2       HT       0.417000        1.0080           0
     19957 WT1      6489     TIP3     OH2      OT      -0.834000       15.9994           0
     19958 WT1      6489     TIP3     H1       HT       0.417000        1.0080           0
     19959 WT1      6489     TIP3     H2       HT       0.417000        1.0080           0
     19960 WT1      6490     TIP3     OH2      OT      -0.834000       15.9994           0
     19961 WT1      6490     TIP3     H1       HT       0.417000        1.0080           0
     19962 WT1      6490     TIP3     H2       HT       0.417000        1.0080           0
     19963 WT1      6491     TIP3     OH2      OT      -0.834000       15.9994           0
     19964 WT1      6491     TIP3     H1       HT       0.417000        1.0080           0
     19965 WT1      6491     TIP3     H2       HT       0.417000        1.0080           0
     19966 WT1      6492     TIP3     OH2      OT      -0.834000       15.9994           0
     19967 WT1      6492     TIP3     H1       HT       0.417000        1.0080           0
     19968 WT1      6492     TIP3     H2       HT       0.417000        1.0080           0
     19969 WT1      6493     TIP3     OH2      OT      -0.834000       15.9994           0
     19970 WT1      6493     TIP3     H1       HT       0.417000        1.0080           0
     19971 WT1      6493     TIP3     H2       HT       0.417000        1.0080           0
     19972 WT1      6494     TIP3     OH2      OT      -0.834000       15.9994           0
     19973 WT1      6494     TIP3     H1       HT       0.417000        1.0080           0
     19974 WT1      6494     TIP3     H2       HT       0.417000        1.0080           0
     19975 WT1      6495     TIP3     OH2      OT      -0.834000       15.9994           0
     19976 WT1      6495     TIP3     H1       HT       0.417000        1.0080           0
     19977 WT1      6495     TIP3     H2       HT       0.417000        1.0080           0
     19978 WT1      6496     TIP3     OH2      OT      -0.834000       15.9994           0
     19979 WT1      6496     TIP3     H1       HT       0.417000        1.0080           0
     19980 WT1      6496     TIP3     H2       HT       0.417000        1.0080           0
     19981 WT1      6497     TIP3     OH2      OT      -0.834000       15.9994           0
     19982 WT1      6497     TIP3     H1       HT       0.417000        1.0080           0
     19983 WT1      6497     TIP3     H2       HT       0.417000        1.0080           0
     19984 WT1      6498     TIP3     OH2      OT      -0.834000       15.9994           0
     19985 WT1      6498     TIP3     H1       HT       0.417000        1.0080           0
     19986 WT1      6498     TIP3     H2       HT       0.417000        1.0080           0
     19987 WT1      6499     TIP3     OH2      OT      -0.834000       15.9994           0
     19988 WT1      6499     TIP3     H1       HT       0.417000        1.0080           0
     19989 WT1      6499     TIP3     H2       HT       0.417000        1.0080           0
     19990 WT1      6500     TIP3     OH2      OT      -0.834000       15.9994           0
     19991 WT1      6500     TIP3     H1       HT       0.417000        1.0080           0
     19992 WT1      6500     TIP3     H2       HT       0.417000        1.0080           0
     19993 WT1      6501     TIP3     OH2      OT      -0.834000       15.9994           0
     19994 WT1      6501     TIP3     H1       HT       0.417000        1.0080           0
     19995 WT1      6501     TIP3     H2       HT       0.417000        1.0080           0
     19996 WT1      6502     TIP3     OH2      OT      -0.834000       15.9994           0
     19997 WT1      6502     TIP3     H1       HT       0.417000        1.0080           0
     19998 WT1      6502     TIP3     H2       HT       0.417000        1.0080           0
     19999 WT1      6503     TIP3     OH2      OT      -0.834000       15.9994           0
     20000 WT1      6503     TIP3     H1       HT       0.417000        1.0080           0
     20001 WT1      6503     TIP3     H2       HT       0.417000        1.0080           0
     20002 WT1      6504     TIP3     OH2      OT      -0.834000       15.9994           0
     20003 WT1      6504     TIP3     H1       HT       0.417000        1.0080           0
     20004 WT1      6504     TIP3     H2       HT       0.417000        1.0080           0
     20005 WT1      6506     TIP3     OH2      OT      -0.834000       15.9994           0
     20006 WT1      6506     TIP3     H1       HT       0.417000        1.0080           0
     20007 WT1      6506     TIP3     H2       HT       0.417000        1.0080           0
     20008 WT1      6507     TIP3     OH2      OT      -0.834000       15.9994           0
     20009 WT1      6507     TIP3     H1       HT       0.417000        1.0080           0
     20010 WT1      6507     TIP3     H2       HT       0.417000        1.0080           0
     20011 WT1      6508     TIP3     OH2      OT      -0.834000       15.9994           0
     20012 WT1      6508     TIP3     H1       HT       0.417000        1.0080           0
     20013 WT1      6508     TIP3     H2       HT       0.417000        1.0080           0
     20014 WT1      6509     TIP3     OH2      OT      -0.834000       15.9994           0
     20015 WT1      6509     TIP3     H1       HT       0.417000        1.0080           0
     20016 WT1      6509     TIP3     H2       HT       0.417000        1.0080           0
     20017 WT1      6510     TIP3     OH2      OT      -0.834000       15.9994           0
     20018 WT1      6510     TIP3     H1       HT       0.417000        1.0080           0
     20019 WT1      6510     TIP3     H2       HT       0.417000        1.0080           0
     20020 WT1      6511     TIP3     OH2      OT      -0.834000       15.9994           0
     20021 WT1      6511     TIP3     H1       HT       0.417000        1.0080           0
     20022 WT1      6511     TIP3     H2       HT       0.417000        1.0080           0
     20023 WT1      6512     TIP3     OH2      OT      -0.834000       15.9994           0
     20024 WT1      6512     TIP3     H1       HT       0.417000        1.0080           0
     20025 WT1      6512     TIP3     H2       HT       0.417000        1.0080           0
     20026 WT1      6513     TIP3     OH2      OT      -0.834000       15.9994           0
     20027 WT1      6513     TIP3     H1       HT       0.417000        1.0080           0
     20028 WT1      6513     TIP3     H2       HT       0.417000        1.0080           0
     20029 WT1      6514     TIP3     OH2      OT      -0.834000       15.9994           0
     20030 WT1      6514     TIP3     H1       HT       0.417000        1.0080           0
     20031 WT1      6514     TIP3     H2       HT       0.417000        1.0080           0
     20032 WT1      6515     TIP3     OH2      OT      -0.834000       15.9994           0
     20033 WT1      6515     TIP3     H1       HT       0.417000        1.0080           0
     20034 WT1      6515     TIP3     H2       HT       0.417000        1.0080           0
     20035 WT1      6516     TIP3     OH2      OT      -0.834000       15.9994           0
     20036 WT1      6516     TIP3     H1       HT       0.417000        1.0080           0
     20037 WT1      6516     TIP3     H2       HT       0.417000        1.0080           0
     20038 WT1      6517     TIP3     OH2      OT      -0.834000       15.9994           0
     20039 WT1      6517     TIP3     H1       HT       0.417000        1.0080           0
     20040 WT1      6517     TIP3     H2       HT       0.417000        1.0080           0
     20041 WT1      6518     TIP3     OH2      OT      -0.834000       15.9994           0
     20042 WT1      6518     TIP3     H1       HT       0.417000        1.0080           0
     20043 WT1      6518     TIP3     H2       HT       0.417000        1.0080           0
     20044 WT1      6519     TIP3     OH2      OT      -0.834000       15.9994           0
     20045 WT1      6519     TIP3     H1       HT       0.417000        1.0080           0
     20046 WT1      6519     TIP3     H2       HT       0.417000        1.0080           0
     20047 WT1      6520     TIP3     OH2      OT      -0.834000       15.9994           0
     20048 WT1      6520     TIP3     H1       HT       0.417000        1.0080           0
     20049 WT1      6520     TIP3     H2       HT       0.417000        1.0080           0
     20050 WT1      6521     TIP3     OH2      OT      -0.834000       15.9994           0
     20051 WT1      6521     TIP3     H1       HT       0.417000        1.0080           0
     20052 WT1      6521     TIP3     H2       HT       0.417000        1.0080           0
     20053 WT1      6522     TIP3     OH2      OT      -0.834000       15.9994           0
     20054 WT1      6522     TIP3     H1       HT       0.417000        1.0080           0
     20055 WT1      6522     TIP3     H2       HT       0.417000        1.0080           0
     20056 WT1      6523     TIP3     OH2      OT      -0.834000       15.9994           0
     20057 WT1      6523     TIP3     H1       HT       0.417000        1.0080           0
     20058 WT1      6523     TIP3     H2       HT       0.417000        1.0080           0
     20059 WT1      6524     TIP3     OH2      OT      -0.834000       15.9994           0
     20060 WT1      6524     TIP3     H1       HT       0.417000        1.0080           0
     20061 WT1      6524     TIP3     H2       HT       0.417000        1.0080           0
     20062 WT1      6525     TIP3     OH2      OT      -0.834000       15.9994           0
     20063 WT1      6525     TIP3     H1       HT       0.417000        1.0080           0
     20064 WT1      6525     TIP3     H2       HT       0.417000        1.0080           0
     20065 WT1      6526     TIP3     OH2      OT      -0.834000       15.9994           0
     20066 WT1      6526     TIP3     H1       HT       0.417000        1.0080           0
     20067 WT1      6526     TIP3     H2       HT       0.417000        1.0080           0
     20068 WT1      6527     TIP3     OH2      OT      -0.834000       15.9994           0
     20069 WT1      6527     TIP3     H1       HT       0.417000        1.0080           0
     20070 WT1      6527     TIP3     H2       HT       0.417000        1.0080           0
     20071 WT1      6529     TIP3     OH2      OT      -0.834000       15.9994           0
     20072 WT1      6529     TIP3     H1       HT       0.417000        1.0080           0
     20073 WT1      6529     TIP3     H2       HT       0.417000        1.0080           0
     20074 WT1      6530     TIP3     OH2      OT      -0.834000       15.9994           0
     20075 WT1      6530     TIP3     H1       HT       0.417000        1.0080           0
     20076 WT1      6530     TIP3     H2       HT       0.417000        1.0080           0
     20077 WT1      6531     TIP3     OH2      OT      -0.834000       15.9994           0
     20078 WT1      6531     TIP3     H1       HT       0.417000        1.0080           0
     20079 WT1      6531     TIP3     H2       HT       0.417000        1.0080           0
     20080 WT1      6532     TIP3     OH2      OT      -0.834000       15.9994           0
     20081 WT1      6532     TIP3     H1       HT       0.417000        1.0080           0
     20082 WT1      6532     TIP3     H2       HT       0.417000        1.0080           0
     20083 WT1      6533     TIP3     OH2      OT      -0.834000       15.9994           0
     20084 WT1      6533     TIP3     H1       HT       0.417000        1.0080           0
     20085 WT1      6533     TIP3     H2       HT       0.417000        1.0080           0
     20086 WT1      6534     TIP3     OH2      OT      -0.834000       15.9994           0
     20087 WT1      6534     TIP3     H1       HT       0.417000        1.0080           0
     20088 WT1      6534     TIP3     H2       HT       0.417000        1.0080           0
     20089 WT1      6535     TIP3     OH2      OT      -0.834000       15.9994           0
     20090 WT1      6535     TIP3     H1       HT       0.417000        1.0080           0
     20091 WT1      6535     TIP3     H2       HT       0.417000        1.0080           0
     20092 WT1      6536     TIP3     OH2      OT      -0.834000       15.9994           0
     20093 WT1      6536     TIP3     H1       HT       0.417000        1.0080           0
     20094 WT1      6536     TIP3     H2       HT       0.417000        1.0080           0
     20095 WT1      6537     TIP3     OH2      OT      -0.834000       15.9994           0
     20096 WT1      6537     TIP3     H1       HT       0.417000        1.0080           0
     20097 WT1      6537     TIP3     H2       HT       0.417000        1.0080           0
     20098 WT1      6538     TIP3     OH2      OT      -0.834000       15.9994           0
     20099 WT1      6538     TIP3     H1       HT       0.417000        1.0080           0
     20100 WT1      6538     TIP3     H2       HT       0.417000        1.0080           0
     20101 WT1      6539     TIP3     OH2      OT      -0.834000       15.9994           0
     20102 WT1      6539     TIP3     H1       HT       0.417000        1.0080           0
     20103 WT1      6539     TIP3     H2       HT       0.417000        1.0080           0
     20104 WT1      6540     TIP3     OH2      OT      -0.834000       15.9994           0
     20105 WT1      6540     TIP3     H1       HT       0.417000        1.0080           0
     20106 WT1      6540     TIP3     H2       HT       0.417000        1.0080           0
     20107 WT1      6541     TIP3     OH2      OT      -0.834000       15.9994           0
     20108 WT1      6541     TIP3     H1       HT       0.417000        1.0080           0
     20109 WT1      6541     TIP3     H2       HT       0.417000        1.0080           0
     20110 WT1      6542     TIP3     OH2      OT      -0.834000       15.9994           0
     20111 WT1      6542     TIP3     H1       HT       0.417000        1.0080           0
     20112 WT1      6542     TIP3     H2       HT       0.417000        1.0080           0
     20113 WT1      6543     TIP3     OH2      OT      -0.834000       15.9994           0
     20114 WT1      6543     TIP3     H1       HT       0.417000        1.0080           0
     20115 WT1      6543     TIP3     H2       HT       0.417000        1.0080           0
     20116 WT1      6544     TIP3     OH2      OT      -0.834000       15.9994           0
     20117 WT1      6544     TIP3     H1       HT       0.417000        1.0080           0
     20118 WT1      6544     TIP3     H2       HT       0.417000        1.0080           0
     20119 WT1      6545     TIP3     OH2      OT      -0.834000       15.9994           0
     20120 WT1      6545     TIP3     H1       HT       0.417000        1.0080           0
     20121 WT1      6545     TIP3     H2       HT       0.417000        1.0080           0
     20122 WT1      6546     TIP3     OH2      OT      -0.834000       15.9994           0
     20123 WT1      6546     TIP3     H1       HT       0.417000        1.0080           0
     20124 WT1      6546     TIP3     H2       HT       0.417000        1.0080           0
     20125 WT1      6547     TIP3     OH2      OT      -0.834000       15.9994           0
     20126 WT1      6547     TIP3     H1       HT       0.417000        1.0080           0
     20127 WT1      6547     TIP3     H2       HT       0.417000        1.0080           0
     20128 WT1      6548     TIP3     OH2      OT      -0.834000       15.9994           0
     20129 WT1      6548     TIP3     H1       HT       0.417000        1.0080           0
     20130 WT1      6548     TIP3     H2       HT       0.417000        1.0080           0
     20131 WT1      6549     TIP3     OH2      OT      -0.834000       15.9994           0
     20132 WT1      6549     TIP3     H1       HT       0.417000        1.0080           0
     20133 WT1      6549     TIP3     H2       HT       0.417000        1.0080           0
     20134 WT1      6550     TIP3     OH2      OT      -0.834000       15.9994           0
     20135 WT1      6550     TIP3     H1       HT       0.417000        1.0080           0
     20136 WT1      6550     TIP3     H2       HT       0.417000        1.0080           0
     20137 WT1      6551     TIP3     OH2      OT      -0.834000       15.9994           0
     20138 WT1      6551     TIP3     H1       HT       0.417000        1.0080           0
     20139 WT1      6551     TIP3     H2       HT       0.417000        1.0080           0
     20140 WT1      6552     TIP3     OH2      OT      -0.834000       15.9994           0
     20141 WT1      6552     TIP3     H1       HT       0.417000        1.0080           0
     20142 WT1      6552     TIP3     H2       HT       0.417000        1.0080           0
     20143 WT1      6553     TIP3     OH2      OT      -0.834000       15.9994           0
     20144 WT1      6553     TIP3     H1       HT       0.417000        1.0080           0
     20145 WT1      6553     TIP3     H2       HT       0.417000        1.0080           0
     20146 WT1      6554     TIP3     OH2      OT      -0.834000       15.9994           0
     20147 WT1      6554     TIP3     H1       HT       0.417000        1.0080           0
     20148 WT1      6554     TIP3     H2       HT       0.417000        1.0080           0
     20149 WT1      6555     TIP3     OH2      OT      -0.834000       15.9994           0
     20150 WT1      6555     TIP3     H1       HT       0.417000        1.0080           0
     20151 WT1      6555     TIP3     H2       HT       0.417000        1.0080           0
     20152 WT1      6556     TIP3     OH2      OT      -0.834000       15.9994           0
     20153 WT1      6556     TIP3     H1       HT       0.417000        1.0080           0
     20154 WT1      6556     TIP3     H2       HT       0.417000        1.0080           0
     20155 WT1      6557     TIP3     OH2      OT      -0.834000       15.9994           0
     20156 WT1      6557     TIP3     H1       HT       0.417000        1.0080           0
     20157 WT1      6557     TIP3     H2       HT       0.417000        1.0080           0
     20158 WT1      6558     TIP3     OH2      OT      -0.834000       15.9994           0
     20159 WT1      6558     TIP3     H1       HT       0.417000        1.0080           0
     20160 WT1      6558     TIP3     H2       HT       0.417000        1.0080           0
     20161 WT1      6559     TIP3     OH2      OT      -0.834000       15.9994           0
     20162 WT1      6559     TIP3     H1       HT       0.417000        1.0080           0
     20163 WT1      6559     TIP3     H2       HT       0.417000        1.0080           0
     20164 WT1      6560     TIP3     OH2      OT      -0.834000       15.9994           0
     20165 WT1      6560     TIP3     H1       HT       0.417000        1.0080           0
     20166 WT1      6560     TIP3     H2       HT       0.417000        1.0080           0
     20167 WT1      6561     TIP3     OH2      OT      -0.834000       15.9994           0
     20168 WT1      6561     TIP3     H1       HT       0.417000        1.0080           0
     20169 WT1      6561     TIP3     H2       HT       0.417000        1.0080           0
     20170 WT1      6562     TIP3     OH2      OT      -0.834000       15.9994           0
     20171 WT1      6562     TIP3     H1       HT       0.417000        1.0080           0
     20172 WT1      6562     TIP3     H2       HT       0.417000        1.0080           0
     20173 WT1      6563     TIP3     OH2      OT      -0.834000       15.9994           0
     20174 WT1      6563     TIP3     H1       HT       0.417000        1.0080           0
     20175 WT1      6563     TIP3     H2       HT       0.417000        1.0080           0
     20176 WT1      6564     TIP3     OH2      OT      -0.834000       15.9994           0
     20177 WT1      6564     TIP3     H1       HT       0.417000        1.0080           0
     20178 WT1      6564     TIP3     H2       HT       0.417000        1.0080           0
     20179 WT1      6565     TIP3     OH2      OT      -0.834000       15.9994           0
     20180 WT1      6565     TIP3     H1       HT       0.417000        1.0080           0
     20181 WT1      6565     TIP3     H2       HT       0.417000        1.0080           0
     20182 WT1      6566     TIP3     OH2      OT      -0.834000       15.9994           0
     20183 WT1      6566     TIP3     H1       HT       0.417000        1.0080           0
     20184 WT1      6566     TIP3     H2       HT       0.417000        1.0080           0
     20185 WT1      6567     TIP3     OH2      OT      -0.834000       15.9994           0
     20186 WT1      6567     TIP3     H1       HT       0.417000        1.0080           0
     20187 WT1      6567     TIP3     H2       HT       0.417000        1.0080           0
     20188 WT1      6568     TIP3     OH2      OT      -0.834000       15.9994           0
     20189 WT1      6568     TIP3     H1       HT       0.417000        1.0080           0
     20190 WT1      6568     TIP3     H2       HT       0.417000        1.0080           0
     20191 WT1      6569     TIP3     OH2      OT      -0.834000       15.9994           0
     20192 WT1      6569     TIP3     H1       HT       0.417000        1.0080           0
     20193 WT1      6569     TIP3     H2       HT       0.417000        1.0080           0
     20194 WT1      6570     TIP3     OH2      OT      -0.834000       15.9994           0
     20195 WT1      6570     TIP3     H1       HT       0.417000        1.0080           0
     20196 WT1      6570     TIP3     H2       HT       0.417000        1.0080           0
     20197 WT1      6571     TIP3     OH2      OT      -0.834000       15.9994           0
     20198 WT1      6571     TIP3     H1       HT       0.417000        1.0080           0
     20199 WT1      6571     TIP3     H2       HT       0.417000        1.0080           0
     20200 WT1      6572     TIP3     OH2      OT      -0.834000       15.9994           0
     20201 WT1      6572     TIP3     H1       HT       0.417000        1.0080           0
     20202 WT1      6572     TIP3     H2       HT       0.417000        1.0080           0
     20203 WT1      6573     TIP3     OH2      OT      -0.834000       15.9994           0
     20204 WT1      6573     TIP3     H1       HT       0.417000        1.0080           0
     20205 WT1      6573     TIP3     H2       HT       0.417000        1.0080           0
     20206 WT1      6574     TIP3     OH2      OT      -0.834000       15.9994           0
     20207 WT1      6574     TIP3     H1       HT       0.417000        1.0080           0
     20208 WT1      6574     TIP3     H2       HT       0.417000        1.0080           0
     20209 WT1      6575     TIP3     OH2      OT      -0.834000       15.9994           0
     20210 WT1      6575     TIP3     H1       HT       0.417000        1.0080           0
     20211 WT1      6575     TIP3     H2       HT       0.417000        1.0080           0
     20212 WT1      6576     TIP3     OH2      OT      -0.834000       15.9994           0
     20213 WT1      6576     TIP3     H1       HT       0.417000        1.0080           0
     20214 WT1      6576     TIP3     H2       HT       0.417000        1.0080           0
     20215 WT1      6577     TIP3     OH2      OT      -0.834000       15.9994           0
     20216 WT1      6577     TIP3     H1       HT       0.417000        1.0080           0
     20217 WT1      6577     TIP3     H2       HT       0.417000        1.0080           0
     20218 WT1      6578     TIP3     OH2      OT      -0.834000       15.9994           0
     20219 WT1      6578     TIP3     H1       HT       0.417000        1.0080           0
     20220 WT1      6578     TIP3     H2       HT       0.417000        1.0080           0
     20221 WT1      6579     TIP3     OH2      OT      -0.834000       15.9994           0
     20222 WT1      6579     TIP3     H1       HT       0.417000        1.0080           0
     20223 WT1      6579     TIP3     H2       HT       0.417000        1.0080           0
     20224 WT1      6580     TIP3     OH2      OT      -0.834000       15.9994           0
     20225 WT1      6580     TIP3     H1       HT       0.417000        1.0080           0
     20226 WT1      6580     TIP3     H2       HT       0.417000        1.0080           0
     20227 WT1      6581     TIP3     OH2      OT      -0.834000       15.9994           0
     20228 WT1      6581     TIP3     H1       HT       0.417000        1.0080           0
     20229 WT1      6581     TIP3     H2       HT       0.417000        1.0080           0
     20230 WT1      6582     TIP3     OH2      OT      -0.834000       15.9994           0
     20231 WT1      6582     TIP3     H1       HT       0.417000        1.0080           0
     20232 WT1      6582     TIP3     H2       HT       0.417000        1.0080           0
     20233 WT1      6583     TIP3     OH2      OT      -0.834000       15.9994           0
     20234 WT1      6583     TIP3     H1       HT       0.417000        1.0080           0
     20235 WT1      6583     TIP3     H2       HT       0.417000        1.0080           0
     20236 WT1      6584     TIP3     OH2      OT      -0.834000       15.9994           0
     20237 WT1      6584     TIP3     H1       HT       0.417000        1.0080           0
     20238 WT1      6584     TIP3     H2       HT       0.417000        1.0080           0
     20239 WT1      6586     TIP3     OH2      OT      -0.834000       15.9994           0
     20240 WT1      6586     TIP3     H1       HT       0.417000        1.0080           0
     20241 WT1      6586     TIP3     H2       HT       0.417000        1.0080           0
     20242 WT1      6587     TIP3     OH2      OT      -0.834000       15.9994           0
     20243 WT1      6587     TIP3     H1       HT       0.417000        1.0080           0
     20244 WT1      6587     TIP3     H2       HT       0.417000        1.0080           0
     20245 WT1      6589     TIP3     OH2      OT      -0.834000       15.9994           0
     20246 WT1      6589     TIP3     H1       HT       0.417000        1.0080           0
     20247 WT1      6589     TIP3     H2       HT       0.417000        1.0080           0
     20248 WT1      6590     TIP3     OH2      OT      -0.834000       15.9994           0
     20249 WT1      6590     TIP3     H1       HT       0.417000        1.0080           0
     20250 WT1      6590     TIP3     H2       HT       0.417000        1.0080           0
     20251 WT1      6592     TIP3     OH2      OT      -0.834000       15.9994           0
     20252 WT1      6592     TIP3     H1       HT       0.417000        1.0080           0
     20253 WT1      6592     TIP3     H2       HT       0.417000        1.0080           0
     20254 WT1      6593     TIP3     OH2      OT      -0.834000       15.9994           0
     20255 WT1      6593     TIP3     H1       HT       0.417000        1.0080           0
     20256 WT1      6593     TIP3     H2       HT       0.417000        1.0080           0
     20257 WT1      6594     TIP3     OH2      OT      -0.834000       15.9994           0
     20258 WT1      6594     TIP3     H1       HT       0.417000        1.0080           0
     20259 WT1      6594     TIP3     H2       HT       0.417000        1.0080           0
     20260 WT1      6595     TIP3     OH2      OT      -0.834000       15.9994           0
     20261 WT1      6595     TIP3     H1       HT       0.417000        1.0080           0
     20262 WT1      6595     TIP3     H2       HT       0.417000        1.0080           0
     20263 WT1      6596     TIP3     OH2      OT      -0.834000       15.9994           0
     20264 WT1      6596     TIP3     H1       HT       0.417000        1.0080           0
     20265 WT1      6596     TIP3     H2       HT       0.417000        1.0080           0
     20266 WT1      6597     TIP3     OH2      OT      -0.834000       15.9994           0
     20267 WT1      6597     TIP3     H1       HT       0.417000        1.0080           0
     20268 WT1      6597     TIP3     H2       HT       0.417000        1.0080           0
     20269 WT1      6598     TIP3     OH2      OT      -0.834000       15.9994           0
     20270 WT1      6598     TIP3     H1       HT       0.417000        1.0080           0
     20271 WT1      6598     TIP3     H2       HT       0.417000        1.0080           0
     20272 WT1      6599     TIP3     OH2      OT      -0.834000       15.9994           0
     20273 WT1      6599     TIP3     H1       HT       0.417000        1.0080           0
     20274 WT1      6599     TIP3     H2       HT       0.417000        1.0080           0
     20275 WT1      6600     TIP3     OH2      OT      -0.834000       15.9994           0
     20276 WT1      6600     TIP3     H1       HT       0.417000        1.0080           0
     20277 WT1      6600     TIP3     H2       HT       0.417000        1.0080           0
     20278 WT1      6601     TIP3     OH2      OT      -0.834000       15.9994           0
     20279 WT1      6601     TIP3     H1       HT       0.417000        1.0080           0
     20280 WT1      6601     TIP3     H2       HT       0.417000        1.0080           0
     20281 WT1      6602     TIP3     OH2      OT      -0.834000       15.9994           0
     20282 WT1      6602     TIP3     H1       HT       0.417000        1.0080           0
     20283 WT1      6602     TIP3     H2       HT       0.417000        1.0080           0
     20284 WT1      6603     TIP3     OH2      OT      -0.834000       15.9994           0
     20285 WT1      6603     TIP3     H1       HT       0.417000        1.0080           0
     20286 WT1      6603     TIP3     H2       HT       0.417000        1.0080           0
     20287 WT1      6604     TIP3     OH2      OT      -0.834000       15.9994           0
     20288 WT1      6604     TIP3     H1       HT       0.417000        1.0080           0
     20289 WT1      6604     TIP3     H2       HT       0.417000        1.0080           0
     20290 WT1      6605     TIP3     OH2      OT      -0.834000       15.9994           0
     20291 WT1      6605     TIP3     H1       HT       0.417000        1.0080           0
     20292 WT1      6605     TIP3     H2       HT       0.417000        1.0080           0
     20293 WT1      6606     TIP3     OH2      OT      -0.834000       15.9994           0
     20294 WT1      6606     TIP3     H1       HT       0.417000        1.0080           0
     20295 WT1      6606     TIP3     H2       HT       0.417000        1.0080           0
     20296 WT1      6607     TIP3     OH2      OT      -0.834000       15.9994           0
     20297 WT1      6607     TIP3     H1       HT       0.417000        1.0080           0
     20298 WT1      6607     TIP3     H2       HT       0.417000        1.0080           0
     20299 WT1      6608     TIP3     OH2      OT      -0.834000       15.9994           0
     20300 WT1      6608     TIP3     H1       HT       0.417000        1.0080           0
     20301 WT1      6608     TIP3     H2       HT       0.417000        1.0080           0
     20302 WT1      6609     TIP3     OH2      OT      -0.834000       15.9994           0
     20303 WT1      6609     TIP3     H1       HT       0.417000        1.0080           0
     20304 WT1      6609     TIP3     H2       HT       0.417000        1.0080           0
     20305 WT1      6610     TIP3     OH2      OT      -0.834000       15.9994           0
     20306 WT1      6610     TIP3     H1       HT       0.417000        1.0080           0
     20307 WT1      6610     TIP3     H2       HT       0.417000        1.0080           0
     20308 WT1      6611     TIP3     OH2      OT      -0.834000       15.9994           0
     20309 WT1      6611     TIP3     H1       HT       0.417000        1.0080           0
     20310 WT1      6611     TIP3     H2       HT       0.417000        1.0080           0
     20311 WT1      6612     TIP3     OH2      OT      -0.834000       15.9994           0
     20312 WT1      6612     TIP3     H1       HT       0.417000        1.0080           0
     20313 WT1      6612     TIP3     H2       HT       0.417000        1.0080           0
     20314 WT1      6613     TIP3     OH2      OT      -0.834000       15.9994           0
     20315 WT1      6613     TIP3     H1       HT       0.417000        1.0080           0
     20316 WT1      6613     TIP3     H2       HT       0.417000        1.0080           0
     20317 WT1      6614     TIP3     OH2      OT      -0.834000       15.9994           0
     20318 WT1      6614     TIP3     H1       HT       0.417000        1.0080           0
     20319 WT1      6614     TIP3     H2       HT       0.417000        1.0080           0
     20320 WT1      6615     TIP3     OH2      OT      -0.834000       15.9994           0
     20321 WT1      6615     TIP3     H1       HT       0.417000        1.0080           0
     20322 WT1      6615     TIP3     H2       HT       0.417000        1.0080           0
     20323 WT1      6616     TIP3     OH2      OT      -0.834000       15.9994           0
     20324 WT1      6616     TIP3     H1       HT       0.417000        1.0080           0
     20325 WT1      6616     TIP3     H2       HT       0.417000        1.0080           0
     20326 WT1      6617     TIP3     OH2      OT      -0.834000       15.9994           0
     20327 WT1      6617     TIP3     H1       HT       0.417000        1.0080           0
     20328 WT1      6617     TIP3     H2       HT       0.417000        1.0080           0
     20329 WT1      6618     TIP3     OH2      OT      -0.834000       15.9994           0
     20330 WT1      6618     TIP3     H1       HT       0.417000        1.0080           0
     20331 WT1      6618     TIP3     H2       HT       0.417000        1.0080           0
     20332 WT1      6619     TIP3     OH2      OT      -0.834000       15.9994           0
     20333 WT1      6619     TIP3     H1       HT       0.417000        1.0080           0
     20334 WT1      6619     TIP3     H2       HT       0.417000        1.0080           0
     20335 WT1      6620     TIP3     OH2      OT      -0.834000       15.9994           0
     20336 WT1      6620     TIP3     H1       HT       0.417000        1.0080           0
     20337 WT1      6620     TIP3     H2       HT       0.417000        1.0080           0
     20338 WT1      6621     TIP3     OH2      OT      -0.834000       15.9994           0
     20339 WT1      6621     TIP3     H1       HT       0.417000        1.0080           0
     20340 WT1      6621     TIP3     H2       HT       0.417000        1.0080           0
     20341 WT1      6622     TIP3     OH2      OT      -0.834000       15.9994           0
     20342 WT1      6622     TIP3     H1       HT       0.417000        1.0080           0
     20343 WT1      6622     TIP3     H2       HT       0.417000        1.0080           0
     20344 WT1      6623     TIP3     OH2      OT      -0.834000       15.9994           0
     20345 WT1      6623     TIP3     H1       HT       0.417000        1.0080           0
     20346 WT1      6623     TIP3     H2       HT       0.417000        1.0080           0
     20347 WT1      6624     TIP3     OH2      OT      -0.834000       15.9994           0
     20348 WT1      6624     TIP3     H1       HT       0.417000        1.0080           0
     20349 WT1      6624     TIP3     H2       HT       0.417000        1.0080           0
     20350 WT1      6625     TIP3     OH2      OT      -0.834000       15.9994           0
     20351 WT1      6625     TIP3     H1       HT       0.417000        1.0080           0
     20352 WT1      6625     TIP3     H2       HT       0.417000        1.0080           0
     20353 WT1      6626     TIP3     OH2      OT      -0.834000       15.9994           0
     20354 WT1      6626     TIP3     H1       HT       0.417000        1.0080           0
     20355 WT1      6626     TIP3     H2       HT       0.417000        1.0080           0
     20356 WT1      6627     TIP3     OH2      OT      -0.834000       15.9994           0
     20357 WT1      6627     TIP3     H1       HT       0.417000        1.0080           0
     20358 WT1      6627     TIP3     H2       HT       0.417000        1.0080           0
     20359 WT1      6628     TIP3     OH2      OT      -0.834000       15.9994           0
     20360 WT1      6628     TIP3     H1       HT       0.417000        1.0080           0
     20361 WT1      6628     TIP3     H2       HT       0.417000        1.0080           0
     20362 WT1      6629     TIP3     OH2      OT      -0.834000       15.9994           0
     20363 WT1      6629     TIP3     H1       HT       0.417000        1.0080           0
     20364 WT1      6629     TIP3     H2       HT       0.417000        1.0080           0
     20365 WT1      6630     TIP3     OH2      OT      -0.834000       15.9994           0
     20366 WT1      6630     TIP3     H1       HT       0.417000        1.0080           0
     20367 WT1      6630     TIP3     H2       HT       0.417000        1.0080           0
     20368 WT1      6631     TIP3     OH2      OT      -0.834000       15.9994           0
     20369 WT1      6631     TIP3     H1       HT       0.417000        1.0080           0
     20370 WT1      6631     TIP3     H2       HT       0.417000        1.0080           0
     20371 WT1      6632     TIP3     OH2      OT      -0.834000       15.9994           0
     20372 WT1      6632     TIP3     H1       HT       0.417000        1.0080           0
     20373 WT1      6632     TIP3     H2       HT       0.417000        1.0080           0
     20374 WT1      6633     TIP3     OH2      OT      -0.834000       15.9994           0
     20375 WT1      6633     TIP3     H1       HT       0.417000        1.0080           0
     20376 WT1      6633     TIP3     H2       HT       0.417000        1.0080           0
     20377 WT1      6634     TIP3     OH2      OT      -0.834000       15.9994           0
     20378 WT1      6634     TIP3     H1       HT       0.417000        1.0080           0
     20379 WT1      6634     TIP3     H2       HT       0.417000        1.0080           0
     20380 WT1      6635     TIP3     OH2      OT      -0.834000       15.9994           0
     20381 WT1      6635     TIP3     H1       HT       0.417000        1.0080           0
     20382 WT1      6635     TIP3     H2       HT       0.417000        1.0080           0
     20383 WT1      6636     TIP3     OH2      OT      -0.834000       15.9994           0
     20384 WT1      6636     TIP3     H1       HT       0.417000        1.0080           0
     20385 WT1      6636     TIP3     H2       HT       0.417000        1.0080           0
     20386 WT1      6637     TIP3     OH2      OT      -0.834000       15.9994           0
     20387 WT1      6637     TIP3     H1       HT       0.417000        1.0080           0
     20388 WT1      6637     TIP3     H2       HT       0.417000        1.0080           0
     20389 WT1      6638     TIP3     OH2      OT      -0.834000       15.9994           0
     20390 WT1      6638     TIP3     H1       HT       0.417000        1.0080           0
     20391 WT1      6638     TIP3     H2       HT       0.417000        1.0080           0
     20392 WT1      6639     TIP3     OH2      OT      -0.834000       15.9994           0
     20393 WT1      6639     TIP3     H1       HT       0.417000        1.0080           0
     20394 WT1      6639     TIP3     H2       HT       0.417000        1.0080           0
     20395 WT1      6640     TIP3     OH2      OT      -0.834000       15.9994           0
     20396 WT1      6640     TIP3     H1       HT       0.417000        1.0080           0
     20397 WT1      6640     TIP3     H2       HT       0.417000        1.0080           0
     20398 WT1      6641     TIP3     OH2      OT      -0.834000       15.9994           0
     20399 WT1      6641     TIP3     H1       HT       0.417000        1.0080           0
     20400 WT1      6641     TIP3     H2       HT       0.417000        1.0080           0
     20401 WT1      6642     TIP3     OH2      OT      -0.834000       15.9994           0
     20402 WT1      6642     TIP3     H1       HT       0.417000        1.0080           0
     20403 WT1      6642     TIP3     H2       HT       0.417000        1.0080           0
     20404 WT1      6643     TIP3     OH2      OT      -0.834000       15.9994           0
     20405 WT1      6643     TIP3     H1       HT       0.417000        1.0080           0
     20406 WT1      6643     TIP3     H2       HT       0.417000        1.0080           0
     20407 WT1      6644     TIP3     OH2      OT      -0.834000       15.9994           0
     20408 WT1      6644     TIP3     H1       HT       0.417000        1.0080           0
     20409 WT1      6644     TIP3     H2       HT       0.417000        1.0080           0
     20410 WT1      6645     TIP3     OH2      OT      -0.834000       15.9994           0
     20411 WT1      6645     TIP3     H1       HT       0.417000        1.0080           0
     20412 WT1      6645     TIP3     H2       HT       0.417000        1.0080           0
     20413 WT1      6646     TIP3     OH2      OT      -0.834000       15.9994           0
     20414 WT1      6646     TIP3     H1       HT       0.417000        1.0080           0
     20415 WT1      6646     TIP3     H2       HT       0.417000        1.0080           0
     20416 WT1      6647     TIP3     OH2      OT      -0.834000       15.9994           0
     20417 WT1      6647     TIP3     H1       HT       0.417000        1.0080           0
     20418 WT1      6647     TIP3     H2       HT       0.417000        1.0080           0
     20419 WT1      6648     TIP3     OH2      OT      -0.834000       15.9994           0
     20420 WT1      6648     TIP3     H1       HT       0.417000        1.0080           0
     20421 WT1      6648     TIP3     H2       HT       0.417000        1.0080           0
     20422 WT1      6649     TIP3     OH2      OT      -0.834000       15.9994           0
     20423 WT1      6649     TIP3     H1       HT       0.417000        1.0080           0
     20424 WT1      6649     TIP3     H2       HT       0.417000        1.0080           0
     20425 WT1      6650     TIP3     OH2      OT      -0.834000       15.9994           0
     20426 WT1      6650     TIP3     H1       HT       0.417000        1.0080           0
     20427 WT1      6650     TIP3     H2       HT       0.417000        1.0080           0
     20428 WT1      6651     TIP3     OH2      OT      -0.834000       15.9994           0
     20429 WT1      6651     TIP3     H1       HT       0.417000        1.0080           0
     20430 WT1      6651     TIP3     H2       HT       0.417000        1.0080           0
     20431 WT1      6652     TIP3     OH2      OT      -0.834000       15.9994           0
     20432 WT1      6652     TIP3     H1       HT       0.417000        1.0080           0
     20433 WT1      6652     TIP3     H2       HT       0.417000        1.0080           0
     20434 WT1      6653     TIP3     OH2      OT      -0.834000       15.9994           0
     20435 WT1      6653     TIP3     H1       HT       0.417000        1.0080           0
     20436 WT1      6653     TIP3     H2       HT       0.417000        1.0080           0
     20437 WT1      6654     TIP3     OH2      OT      -0.834000       15.9994           0
     20438 WT1      6654     TIP3     H1       HT       0.417000        1.0080           0
     20439 WT1      6654     TIP3     H2       HT       0.417000        1.0080           0
     20440 WT1      6655     TIP3     OH2      OT      -0.834000       15.9994           0
     20441 WT1      6655     TIP3     H1       HT       0.417000        1.0080           0
     20442 WT1      6655     TIP3     H2       HT       0.417000        1.0080           0
     20443 WT1      6656     TIP3     OH2      OT      -0.834000       15.9994           0
     20444 WT1      6656     TIP3     H1       HT       0.417000        1.0080           0
     20445 WT1      6656     TIP3     H2       HT       0.417000        1.0080           0
     20446 WT1      6657     TIP3     OH2      OT      -0.834000       15.9994           0
     20447 WT1      6657     TIP3     H1       HT       0.417000        1.0080           0
     20448 WT1      6657     TIP3     H2       HT       0.417000        1.0080           0
     20449 WT1      6658     TIP3     OH2      OT      -0.834000       15.9994           0
     20450 WT1      6658     TIP3     H1       HT       0.417000        1.0080           0
     20451 WT1      6658     TIP3     H2       HT       0.417000        1.0080           0
     20452 WT1      6659     TIP3     OH2      OT      -0.834000       15.9994           0
     20453 WT1      6659     TIP3     H1       HT       0.417000        1.0080           0
     20454 WT1      6659     TIP3     H2       HT       0.417000        1.0080           0
     20455 WT1      6660     TIP3     OH2      OT      -0.834000       15.9994           0
     20456 WT1      6660     TIP3     H1       HT       0.417000        1.0080           0
     20457 WT1      6660     TIP3     H2       HT       0.417000        1.0080           0
     20458 WT1      6661     TIP3     OH2      OT      -0.834000       15.9994           0
     20459 WT1      6661     TIP3     H1       HT       0.417000        1.0080           0
     20460 WT1      6661     TIP3     H2       HT       0.417000        1.0080           0
     20461 WT1      6662     TIP3     OH2      OT      -0.834000       15.9994           0
     20462 WT1      6662     TIP3     H1       HT       0.417000        1.0080           0
     20463 WT1      6662     TIP3     H2       HT       0.417000        1.0080           0
     20464 WT1      6663     TIP3     OH2      OT      -0.834000       15.9994           0
     20465 WT1      6663     TIP3     H1       HT       0.417000        1.0080           0
     20466 WT1      6663     TIP3     H2       HT       0.417000        1.0080           0
     20467 WT1      6664     TIP3     OH2      OT      -0.834000       15.9994           0
     20468 WT1      6664     TIP3     H1       HT       0.417000        1.0080           0
     20469 WT1      6664     TIP3     H2       HT       0.417000        1.0080           0
     20470 WT1      6665     TIP3     OH2      OT      -0.834000       15.9994           0
     20471 WT1      6665     TIP3     H1       HT       0.417000        1.0080           0
     20472 WT1      6665     TIP3     H2       HT       0.417000        1.0080           0
     20473 WT1      6666     TIP3     OH2      OT      -0.834000       15.9994           0
     20474 WT1      6666     TIP3     H1       HT       0.417000        1.0080           0
     20475 WT1      6666     TIP3     H2       HT       0.417000        1.0080           0
     20476 WT1      6667     TIP3     OH2      OT      -0.834000       15.9994           0
     20477 WT1      6667     TIP3     H1       HT       0.417000        1.0080           0
     20478 WT1      6667     TIP3     H2       HT       0.417000        1.0080           0
     20479 WT1      6668     TIP3     OH2      OT      -0.834000       15.9994           0
     20480 WT1      6668     TIP3     H1       HT       0.417000        1.0080           0
     20481 WT1      6668     TIP3     H2       HT       0.417000        1.0080           0
     20482 WT1      6669     TIP3     OH2      OT      -0.834000       15.9994           0
     20483 WT1      6669     TIP3     H1       HT       0.417000        1.0080           0
     20484 WT1      6669     TIP3     H2       HT       0.417000        1.0080           0
     20485 WT1      6670     TIP3     OH2      OT      -0.834000       15.9994           0
     20486 WT1      6670     TIP3     H1       HT       0.417000        1.0080           0
     20487 WT1      6670     TIP3     H2       HT       0.417000        1.0080           0
     20488 WT1      6671     TIP3     OH2      OT      -0.834000       15.9994           0
     20489 WT1      6671     TIP3     H1       HT       0.417000        1.0080           0
     20490 WT1      6671     TIP3     H2       HT       0.417000        1.0080           0
     20491 WT1      6672     TIP3     OH2      OT      -0.834000       15.9994           0
     20492 WT1      6672     TIP3     H1       HT       0.417000        1.0080           0
     20493 WT1      6672     TIP3     H2       HT       0.417000        1.0080           0
     20494 WT1      6673     TIP3     OH2      OT      -0.834000       15.9994           0
     20495 WT1      6673     TIP3     H1       HT       0.417000        1.0080           0
     20496 WT1      6673     TIP3     H2       HT       0.417000        1.0080           0
     20497 WT1      6674     TIP3     OH2      OT      -0.834000       15.9994           0
     20498 WT1      6674     TIP3     H1       HT       0.417000        1.0080           0
     20499 WT1      6674     TIP3     H2       HT       0.417000        1.0080           0
     20500 WT1      6675     TIP3     OH2      OT      -0.834000       15.9994           0
     20501 WT1      6675     TIP3     H1       HT       0.417000        1.0080           0
     20502 WT1      6675     TIP3     H2       HT       0.417000        1.0080           0
     20503 WT1      6676     TIP3     OH2      OT      -0.834000       15.9994           0
     20504 WT1      6676     TIP3     H1       HT       0.417000        1.0080           0
     20505 WT1      6676     TIP3     H2       HT       0.417000        1.0080           0
     20506 WT1      6677     TIP3     OH2      OT      -0.834000       15.9994           0
     20507 WT1      6677     TIP3     H1       HT       0.417000        1.0080           0
     20508 WT1      6677     TIP3     H2       HT       0.417000        1.0080           0
     20509 WT1      6678     TIP3     OH2      OT      -0.834000       15.9994           0
     20510 WT1      6678     TIP3     H1       HT       0.417000        1.0080           0
     20511 WT1      6678     TIP3     H2       HT       0.417000        1.0080           0
     20512 WT1      6679     TIP3     OH2      OT      -0.834000       15.9994           0
     20513 WT1      6679     TIP3     H1       HT       0.417000        1.0080           0
     20514 WT1      6679     TIP3     H2       HT       0.417000        1.0080           0
     20515 WT1      6680     TIP3     OH2      OT      -0.834000       15.9994           0
     20516 WT1      6680     TIP3     H1       HT       0.417000        1.0080           0
     20517 WT1      6680     TIP3     H2       HT       0.417000        1.0080           0
     20518 WT1      6681     TIP3     OH2      OT      -0.834000       15.9994           0
     20519 WT1      6681     TIP3     H1       HT       0.417000        1.0080           0
     20520 WT1      6681     TIP3     H2       HT       0.417000        1.0080           0
     20521 WT1      6682     TIP3     OH2      OT      -0.834000       15.9994           0
     20522 WT1      6682     TIP3     H1       HT       0.417000        1.0080           0
     20523 WT1      6682     TIP3     H2       HT       0.417000        1.0080           0
     20524 WT1      6683     TIP3     OH2      OT      -0.834000       15.9994           0
     20525 WT1      6683     TIP3     H1       HT       0.417000        1.0080           0
     20526 WT1      6683     TIP3     H2       HT       0.417000        1.0080           0
     20527 WT1      6684     TIP3     OH2      OT      -0.834000       15.9994           0
     20528 WT1      6684     TIP3     H1       HT       0.417000        1.0080           0
     20529 WT1      6684     TIP3     H2       HT       0.417000        1.0080           0
     20530 WT1      6685     TIP3     OH2      OT      -0.834000       15.9994           0
     20531 WT1      6685     TIP3     H1       HT       0.417000        1.0080           0
     20532 WT1      6685     TIP3     H2       HT       0.417000        1.0080           0
     20533 WT1      6686     TIP3     OH2      OT      -0.834000       15.9994           0
     20534 WT1      6686     TIP3     H1       HT       0.417000        1.0080           0
     20535 WT1      6686     TIP3     H2       HT       0.417000        1.0080           0
     20536 WT1      6687     TIP3     OH2      OT      -0.834000       15.9994           0
     20537 WT1      6687     TIP3     H1       HT       0.417000        1.0080           0
     20538 WT1      6687     TIP3     H2       HT       0.417000        1.0080           0
     20539 WT1      6688     TIP3     OH2      OT      -0.834000       15.9994           0
     20540 WT1      6688     TIP3     H1       HT       0.417000        1.0080           0
     20541 WT1      6688     TIP3     H2       HT       0.417000        1.0080           0
     20542 WT1      6689     TIP3     OH2      OT      -0.834000       15.9994           0
     20543 WT1      6689     TIP3     H1       HT       0.417000        1.0080           0
     20544 WT1      6689     TIP3     H2       HT       0.417000        1.0080           0
     20545 WT1      6690     TIP3     OH2      OT      -0.834000       15.9994           0
     20546 WT1      6690     TIP3     H1       HT       0.417000        1.0080           0
     20547 WT1      6690     TIP3     H2       HT       0.417000        1.0080           0
     20548 WT1      6691     TIP3     OH2      OT      -0.834000       15.9994           0
     20549 WT1      6691     TIP3     H1       HT       0.417000        1.0080           0
     20550 WT1      6691     TIP3     H2       HT       0.417000        1.0080           0
     20551 WT1      6692     TIP3     OH2      OT      -0.834000       15.9994           0
     20552 WT1      6692     TIP3     H1       HT       0.417000        1.0080           0
     20553 WT1      6692     TIP3     H2       HT       0.417000        1.0080           0
     20554 WT1      6693     TIP3     OH2      OT      -0.834000       15.9994           0
     20555 WT1      6693     TIP3     H1       HT       0.417000        1.0080           0
     20556 WT1      6693     TIP3     H2       HT       0.417000        1.0080           0
     20557 WT1      6694     TIP3     OH2      OT      -0.834000       15.9994           0
     20558 WT1      6694     TIP3     H1       HT       0.417000        1.0080           0
     20559 WT1      6694     TIP3     H2       HT       0.417000        1.0080           0
     20560 WT1      6695     TIP3     OH2      OT      -0.834000       15.9994           0
     20561 WT1      6695     TIP3     H1       HT       0.417000        1.0080           0
     20562 WT1      6695     TIP3     H2       HT       0.417000        1.0080           0
     20563 WT1      6696     TIP3     OH2      OT      -0.834000       15.9994           0
     20564 WT1      6696     TIP3     H1       HT       0.417000        1.0080           0
     20565 WT1      6696     TIP3     H2       HT       0.417000        1.0080           0
     20566 WT1      6697     TIP3     OH2      OT      -0.834000       15.9994           0
     20567 WT1      6697     TIP3     H1       HT       0.417000        1.0080           0
     20568 WT1      6697     TIP3     H2       HT       0.417000        1.0080           0
     20569 WT1      6698     TIP3     OH2      OT      -0.834000       15.9994           0
     20570 WT1      6698     TIP3     H1       HT       0.417000        1.0080           0
     20571 WT1      6698     TIP3     H2       HT       0.417000        1.0080           0
     20572 WT1      6699     TIP3     OH2      OT      -0.834000       15.9994           0
     20573 WT1      6699     TIP3     H1       HT       0.417000        1.0080           0
     20574 WT1      6699     TIP3     H2       HT       0.417000        1.0080           0
     20575 WT1      6700     TIP3     OH2      OT      -0.834000       15.9994           0
     20576 WT1      6700     TIP3     H1       HT       0.417000        1.0080           0
     20577 WT1      6700     TIP3     H2       HT       0.417000        1.0080           0
     20578 WT1      6701     TIP3     OH2      OT      -0.834000       15.9994           0
     20579 WT1      6701     TIP3     H1       HT       0.417000        1.0080           0
     20580 WT1      6701     TIP3     H2       HT       0.417000        1.0080           0
     20581 WT1      6702     TIP3     OH2      OT      -0.834000       15.9994           0
     20582 WT1      6702     TIP3     H1       HT       0.417000        1.0080           0
     20583 WT1      6702     TIP3     H2       HT       0.417000        1.0080           0
     20584 WT1      6703     TIP3     OH2      OT      -0.834000       15.9994           0
     20585 WT1      6703     TIP3     H1       HT       0.417000        1.0080           0
     20586 WT1      6703     TIP3     H2       HT       0.417000        1.0080           0
     20587 WT1      6704     TIP3     OH2      OT      -0.834000       15.9994           0
     20588 WT1      6704     TIP3     H1       HT       0.417000        1.0080           0
     20589 WT1      6704     TIP3     H2       HT       0.417000        1.0080           0
     20590 WT1      6705     TIP3     OH2      OT      -0.834000       15.9994           0
     20591 WT1      6705     TIP3     H1       HT       0.417000        1.0080           0
     20592 WT1      6705     TIP3     H2       HT       0.417000        1.0080           0
     20593 WT1      6706     TIP3     OH2      OT      -0.834000       15.9994           0
     20594 WT1      6706     TIP3     H1       HT       0.417000        1.0080           0
     20595 WT1      6706     TIP3     H2       HT       0.417000        1.0080           0
     20596 WT1      6707     TIP3     OH2      OT      -0.834000       15.9994           0
     20597 WT1      6707     TIP3     H1       HT       0.417000        1.0080           0
     20598 WT1      6707     TIP3     H2       HT       0.417000        1.0080           0
     20599 WT1      6708     TIP3     OH2      OT      -0.834000       15.9994           0
     20600 WT1      6708     TIP3     H1       HT       0.417000        1.0080           0
     20601 WT1      6708     TIP3     H2       HT       0.417000        1.0080           0
     20602 WT1      6709     TIP3     OH2      OT      -0.834000       15.9994           0
     20603 WT1      6709     TIP3     H1       HT       0.417000        1.0080           0
     20604 WT1      6709     TIP3     H2       HT       0.417000        1.0080           0
     20605 WT1      6710     TIP3     OH2      OT      -0.834000       15.9994           0
     20606 WT1      6710     TIP3     H1       HT       0.417000        1.0080           0
     20607 WT1      6710     TIP3     H2       HT       0.417000        1.0080           0
     20608 WT1      6711     TIP3     OH2      OT      -0.834000       15.9994           0
     20609 WT1      6711     TIP3     H1       HT       0.417000        1.0080           0
     20610 WT1      6711     TIP3     H2       HT       0.417000        1.0080           0
     20611 WT1      6712     TIP3     OH2      OT      -0.834000       15.9994           0
     20612 WT1      6712     TIP3     H1       HT       0.417000        1.0080           0
     20613 WT1      6712     TIP3     H2       HT       0.417000        1.0080           0
     20614 WT1      6713     TIP3     OH2      OT      -0.834000       15.9994           0
     20615 WT1      6713     TIP3     H1       HT       0.417000        1.0080           0
     20616 WT1      6713     TIP3     H2       HT       0.417000        1.0080           0
     20617 WT1      6714     TIP3     OH2      OT      -0.834000       15.9994           0
     20618 WT1      6714     TIP3     H1       HT       0.417000        1.0080           0
     20619 WT1      6714     TIP3     H2       HT       0.417000        1.0080           0
     20620 WT1      6715     TIP3     OH2      OT      -0.834000       15.9994           0
     20621 WT1      6715     TIP3     H1       HT       0.417000        1.0080           0
     20622 WT1      6715     TIP3     H2       HT       0.417000        1.0080           0
     20623 WT1      6716     TIP3     OH2      OT      -0.834000       15.9994           0
     20624 WT1      6716     TIP3     H1       HT       0.417000        1.0080           0
     20625 WT1      6716     TIP3     H2       HT       0.417000        1.0080           0
     20626 WT1      6717     TIP3     OH2      OT      -0.834000       15.9994           0
     20627 WT1      6717     TIP3     H1       HT       0.417000        1.0080           0
     20628 WT1      6717     TIP3     H2       HT       0.417000        1.0080           0
     20629 WT1      6718     TIP3     OH2      OT      -0.834000       15.9994           0
     20630 WT1      6718     TIP3     H1       HT       0.417000        1.0080           0
     20631 WT1      6718     TIP3     H2       HT       0.417000        1.0080           0
     20632 WT1      6719     TIP3     OH2      OT      -0.834000       15.9994           0
     20633 WT1      6719     TIP3     H1       HT       0.417000        1.0080           0
     20634 WT1      6719     TIP3     H2       HT       0.417000        1.0080           0
     20635 WT1      6720     TIP3     OH2      OT      -0.834000       15.9994           0
     20636 WT1      6720     TIP3     H1       HT       0.417000        1.0080           0
     20637 WT1      6720     TIP3     H2       HT       0.417000        1.0080           0
     20638 WT1      6721     TIP3     OH2      OT      -0.834000       15.9994           0
     20639 WT1      6721     TIP3     H1       HT       0.417000        1.0080           0
     20640 WT1      6721     TIP3     H2       HT       0.417000        1.0080           0
     20641 WT1      6722     TIP3     OH2      OT      -0.834000       15.9994           0
     20642 WT1      6722     TIP3     H1       HT       0.417000        1.0080           0
     20643 WT1      6722     TIP3     H2       HT       0.417000        1.0080           0
     20644 WT1      6723     TIP3     OH2      OT      -0.834000       15.9994           0
     20645 WT1      6723     TIP3     H1       HT       0.417000        1.0080           0
     20646 WT1      6723     TIP3     H2       HT       0.417000        1.0080           0
     20647 WT1      6724     TIP3     OH2      OT      -0.834000       15.9994           0
     20648 WT1      6724     TIP3     H1       HT       0.417000        1.0080           0
     20649 WT1      6724     TIP3     H2       HT       0.417000        1.0080           0
     20650 WT1      6725     TIP3     OH2      OT      -0.834000       15.9994           0
     20651 WT1      6725     TIP3     H1       HT       0.417000        1.0080           0
     20652 WT1      6725     TIP3     H2       HT       0.417000        1.0080           0
     20653 WT1      6726     TIP3     OH2      OT      -0.834000       15.9994           0
     20654 WT1      6726     TIP3     H1       HT       0.417000        1.0080           0
     20655 WT1      6726     TIP3     H2       HT       0.417000        1.0080           0
     20656 WT1      6727     TIP3     OH2      OT      -0.834000       15.9994           0
     20657 WT1      6727     TIP3     H1       HT       0.417000        1.0080           0
     20658 WT1      6727     TIP3     H2       HT       0.417000        1.0080           0
     20659 WT1      6728     TIP3     OH2      OT      -0.834000       15.9994           0
     20660 WT1      6728     TIP3     H1       HT       0.417000        1.0080           0
     20661 WT1      6728     TIP3     H2       HT       0.417000        1.0080           0
     20662 WT1      6729     TIP3     OH2      OT      -0.834000       15.9994           0
     20663 WT1      6729     TIP3     H1       HT       0.417000        1.0080           0
     20664 WT1      6729     TIP3     H2       HT       0.417000        1.0080           0
     20665 WT1      6730     TIP3     OH2      OT      -0.834000       15.9994           0
     20666 WT1      6730     TIP3     H1       HT       0.417000        1.0080           0
     20667 WT1      6730     TIP3     H2       HT       0.417000        1.0080           0
     20668 WT1      6731     TIP3     OH2      OT      -0.834000       15.9994           0
     20669 WT1      6731     TIP3     H1       HT       0.417000        1.0080           0
     20670 WT1      6731     TIP3     H2       HT       0.417000        1.0080           0
     20671 WT1      6732     TIP3     OH2      OT      -0.834000       15.9994           0
     20672 WT1      6732     TIP3     H1       HT       0.417000        1.0080           0
     20673 WT1      6732     TIP3     H2       HT       0.417000        1.0080           0
     20674 WT1      6733     TIP3     OH2      OT      -0.834000       15.9994           0
     20675 WT1      6733     TIP3     H1       HT       0.417000        1.0080           0
     20676 WT1      6733     TIP3     H2       HT       0.417000        1.0080           0
     20677 WT1      6734     TIP3     OH2      OT      -0.834000       15.9994           0
     20678 WT1      6734     TIP3     H1       HT       0.417000        1.0080           0
     20679 WT1      6734     TIP3     H2       HT       0.417000        1.0080           0
     20680 WT1      6735     TIP3     OH2      OT      -0.834000       15.9994           0
     20681 WT1      6735     TIP3     H1       HT       0.417000        1.0080           0
     20682 WT1      6735     TIP3     H2       HT       0.417000        1.0080           0
     20683 WT1      6736     TIP3     OH2      OT      -0.834000       15.9994           0
     20684 WT1      6736     TIP3     H1       HT       0.417000        1.0080           0
     20685 WT1      6736     TIP3     H2       HT       0.417000        1.0080           0
     20686 WT1      6737     TIP3     OH2      OT      -0.834000       15.9994           0
     20687 WT1      6737     TIP3     H1       HT       0.417000        1.0080           0
     20688 WT1      6737     TIP3     H2       HT       0.417000        1.0080           0
     20689 WT1      6738     TIP3     OH2      OT      -0.834000       15.9994           0
     20690 WT1      6738     TIP3     H1       HT       0.417000        1.0080           0
     20691 WT1      6738     TIP3     H2       HT       0.417000        1.0080           0
     20692 WT1      6739     TIP3     OH2      OT      -0.834000       15.9994           0
     20693 WT1      6739     TIP3     H1       HT       0.417000        1.0080           0
     20694 WT1      6739     TIP3     H2       HT       0.417000        1.0080           0
     20695 WT1      6740     TIP3     OH2      OT      -0.834000       15.9994           0
     20696 WT1      6740     TIP3     H1       HT       0.417000        1.0080           0
     20697 WT1      6740     TIP3     H2       HT       0.417000        1.0080           0
     20698 WT1      6741     TIP3     OH2      OT      -0.834000       15.9994           0
     20699 WT1      6741     TIP3     H1       HT       0.417000        1.0080           0
     20700 WT1      6741     TIP3     H2       HT       0.417000        1.0080           0
     20701 WT1      6742     TIP3     OH2      OT      -0.834000       15.9994           0
     20702 WT1      6742     TIP3     H1       HT       0.417000        1.0080           0
     20703 WT1      6742     TIP3     H2       HT       0.417000        1.0080           0
     20704 WT1      6743     TIP3     OH2      OT      -0.834000       15.9994           0
     20705 WT1      6743     TIP3     H1       HT       0.417000        1.0080           0
     20706 WT1      6743     TIP3     H2       HT       0.417000        1.0080           0
     20707 WT1      6744     TIP3     OH2      OT      -0.834000       15.9994           0
     20708 WT1      6744     TIP3     H1       HT       0.417000        1.0080           0
     20709 WT1      6744     TIP3     H2       HT       0.417000        1.0080           0
     20710 WT1      6745     TIP3     OH2      OT      -0.834000       15.9994           0
     20711 WT1      6745     TIP3     H1       HT       0.417000        1.0080           0
     20712 WT1      6745     TIP3     H2       HT       0.417000        1.0080           0
     20713 WT1      6746     TIP3     OH2      OT      -0.834000       15.9994           0
     20714 WT1      6746     TIP3     H1       HT       0.417000        1.0080           0
     20715 WT1      6746     TIP3     H2       HT       0.417000        1.0080           0
     20716 WT1      6747     TIP3     OH2      OT      -0.834000       15.9994           0
     20717 WT1      6747     TIP3     H1       HT       0.417000        1.0080           0
     20718 WT1      6747     TIP3     H2       HT       0.417000        1.0080           0
     20719 WT1      6748     TIP3     OH2      OT      -0.834000       15.9994           0
     20720 WT1      6748     TIP3     H1       HT       0.417000        1.0080           0
     20721 WT1      6748     TIP3     H2       HT       0.417000        1.0080           0
     20722 WT1      6749     TIP3     OH2      OT      -0.834000       15.9994           0
     20723 WT1      6749     TIP3     H1       HT       0.417000        1.0080           0
     20724 WT1      6749     TIP3     H2       HT       0.417000        1.0080           0
     20725 WT1      6750     TIP3     OH2      OT      -0.834000       15.9994           0
     20726 WT1      6750     TIP3     H1       HT       0.417000        1.0080           0
     20727 WT1      6750     TIP3     H2       HT       0.417000        1.0080           0
     20728 WT1      6751     TIP3     OH2      OT      -0.834000       15.9994           0
     20729 WT1      6751     TIP3     H1       HT       0.417000        1.0080           0
     20730 WT1      6751     TIP3     H2       HT       0.417000        1.0080           0
     20731 WT1      6752     TIP3     OH2      OT      -0.834000       15.9994           0
     20732 WT1      6752     TIP3     H1       HT       0.417000        1.0080           0
     20733 WT1      6752     TIP3     H2       HT       0.417000        1.0080           0
     20734 WT1      6753     TIP3     OH2      OT      -0.834000       15.9994           0
     20735 WT1      6753     TIP3     H1       HT       0.417000        1.0080           0
     20736 WT1      6753     TIP3     H2       HT       0.417000        1.0080           0
     20737 WT1      6754     TIP3     OH2      OT      -0.834000       15.9994           0
     20738 WT1      6754     TIP3     H1       HT       0.417000        1.0080           0
     20739 WT1      6754     TIP3     H2       HT       0.417000        1.0080           0
     20740 WT1      6755     TIP3     OH2      OT      -0.834000       15.9994           0
     20741 WT1      6755     TIP3     H1       HT       0.417000        1.0080           0
     20742 WT1      6755     TIP3     H2       HT       0.417000        1.0080           0
     20743 WT1      6756     TIP3     OH2      OT      -0.834000       15.9994           0
     20744 WT1      6756     TIP3     H1       HT       0.417000        1.0080           0
     20745 WT1      6756     TIP3     H2       HT       0.417000        1.0080           0
     20746 WT1      6757     TIP3     OH2      OT      -0.834000       15.9994           0
     20747 WT1      6757     TIP3     H1       HT       0.417000        1.0080           0
     20748 WT1      6757     TIP3     H2       HT       0.417000        1.0080           0
     20749 WT1      6758     TIP3     OH2      OT      -0.834000       15.9994           0
     20750 WT1      6758     TIP3     H1       HT       0.417000        1.0080           0
     20751 WT1      6758     TIP3     H2       HT       0.417000        1.0080           0
     20752 WT1      6759     TIP3     OH2      OT      -0.834000       15.9994           0
     20753 WT1      6759     TIP3     H1       HT       0.417000        1.0080           0
     20754 WT1      6759     TIP3     H2       HT       0.417000        1.0080           0
     20755 WT1      6760     TIP3     OH2      OT      -0.834000       15.9994           0
     20756 WT1      6760     TIP3     H1       HT       0.417000        1.0080           0
     20757 WT1      6760     TIP3     H2       HT       0.417000        1.0080           0
     20758 WT1      6761     TIP3     OH2      OT      -0.834000       15.9994           0
     20759 WT1      6761     TIP3     H1       HT       0.417000        1.0080           0
     20760 WT1      6761     TIP3     H2       HT       0.417000        1.0080           0
     20761 WT1      6762     TIP3     OH2      OT      -0.834000       15.9994           0
     20762 WT1      6762     TIP3     H1       HT       0.417000        1.0080           0
     20763 WT1      6762     TIP3     H2       HT       0.417000        1.0080           0
     20764 WT1      6763     TIP3     OH2      OT      -0.834000       15.9994           0
     20765 WT1      6763     TIP3     H1       HT       0.417000        1.0080           0
     20766 WT1      6763     TIP3     H2       HT       0.417000        1.0080           0
     20767 WT1      6764     TIP3     OH2      OT      -0.834000       15.9994           0
     20768 WT1      6764     TIP3     H1       HT       0.417000        1.0080           0
     20769 WT1      6764     TIP3     H2       HT       0.417000        1.0080           0
     20770 WT1      6765     TIP3     OH2      OT      -0.834000       15.9994           0
     20771 WT1      6765     TIP3     H1       HT       0.417000        1.0080           0
     20772 WT1      6765     TIP3     H2       HT       0.417000        1.0080           0
     20773 WT1      6766     TIP3     OH2      OT      -0.834000       15.9994           0
     20774 WT1      6766     TIP3     H1       HT       0.417000        1.0080           0
     20775 WT1      6766     TIP3     H2       HT       0.417000        1.0080           0
     20776 WT1      6767     TIP3     OH2      OT      -0.834000       15.9994           0
     20777 WT1      6767     TIP3     H1       HT       0.417000        1.0080           0
     20778 WT1      6767     TIP3     H2       HT       0.417000        1.0080           0
     20779 WT1      6768     TIP3     OH2      OT      -0.834000       15.9994           0
     20780 WT1      6768     TIP3     H1       HT       0.417000        1.0080           0
     20781 WT1      6768     TIP3     H2       HT       0.417000        1.0080           0
     20782 WT1      6769     TIP3     OH2      OT      -0.834000       15.9994           0
     20783 WT1      6769     TIP3     H1       HT       0.417000        1.0080           0
     20784 WT1      6769     TIP3     H2       HT       0.417000        1.0080           0
     20785 WT1      6770     TIP3     OH2      OT      -0.834000       15.9994           0
     20786 WT1      6770     TIP3     H1       HT       0.417000        1.0080           0
     20787 WT1      6770     TIP3     H2       HT       0.417000        1.0080           0
     20788 WT1      6771     TIP3     OH2      OT      -0.834000       15.9994           0
     20789 WT1      6771     TIP3     H1       HT       0.417000        1.0080           0
     20790 WT1      6771     TIP3     H2       HT       0.417000        1.0080           0
     20791 WT1      6772     TIP3     OH2      OT      -0.834000       15.9994           0
     20792 WT1      6772     TIP3     H1       HT       0.417000        1.0080           0
     20793 WT1      6772     TIP3     H2       HT       0.417000        1.0080           0
     20794 WT1      6773     TIP3     OH2      OT      -0.834000       15.9994           0
     20795 WT1      6773     TIP3     H1       HT       0.417000        1.0080           0
     20796 WT1      6773     TIP3     H2       HT       0.417000        1.0080           0
     20797 WT1      6774     TIP3     OH2      OT      -0.834000       15.9994           0
     20798 WT1      6774     TIP3     H1       HT       0.417000        1.0080           0
     20799 WT1      6774     TIP3     H2       HT       0.417000        1.0080           0
     20800 WT1      6775     TIP3     OH2      OT      -0.834000       15.9994           0
     20801 WT1      6775     TIP3     H1       HT       0.417000        1.0080           0
     20802 WT1      6775     TIP3     H2       HT       0.417000        1.0080           0
     20803 WT1      6776     TIP3     OH2      OT      -0.834000       15.9994           0
     20804 WT1      6776     TIP3     H1       HT       0.417000        1.0080           0
     20805 WT1      6776     TIP3     H2       HT       0.417000        1.0080           0
     20806 WT1      6777     TIP3     OH2      OT      -0.834000       15.9994           0
     20807 WT1      6777     TIP3     H1       HT       0.417000        1.0080           0
     20808 WT1      6777     TIP3     H2       HT       0.417000        1.0080           0
     20809 WT1      6778     TIP3     OH2      OT      -0.834000       15.9994           0
     20810 WT1      6778     TIP3     H1       HT       0.417000        1.0080           0
     20811 WT1      6778     TIP3     H2       HT       0.417000        1.0080           0
     20812 WT1      6779     TIP3     OH2      OT      -0.834000       15.9994           0
     20813 WT1      6779     TIP3     H1       HT       0.417000        1.0080           0
     20814 WT1      6779     TIP3     H2       HT       0.417000        1.0080           0
     20815 WT1      6780     TIP3     OH2      OT      -0.834000       15.9994           0
     20816 WT1      6780     TIP3     H1       HT       0.417000        1.0080           0
     20817 WT1      6780     TIP3     H2       HT       0.417000        1.0080           0
     20818 WT1      6781     TIP3     OH2      OT      -0.834000       15.9994           0
     20819 WT1      6781     TIP3     H1       HT       0.417000        1.0080           0
     20820 WT1      6781     TIP3     H2       HT       0.417000        1.0080           0
     20821 WT1      6782     TIP3     OH2      OT      -0.834000       15.9994           0
     20822 WT1      6782     TIP3     H1       HT       0.417000        1.0080           0
     20823 WT1      6782     TIP3     H2       HT       0.417000        1.0080           0
     20824 WT1      6783     TIP3     OH2      OT      -0.834000       15.9994           0
     20825 WT1      6783     TIP3     H1       HT       0.417000        1.0080           0
     20826 WT1      6783     TIP3     H2       HT       0.417000        1.0080           0
     20827 WT1      6784     TIP3     OH2      OT      -0.834000       15.9994           0
     20828 WT1      6784     TIP3     H1       HT       0.417000        1.0080           0
     20829 WT1      6784     TIP3     H2       HT       0.417000        1.0080           0
     20830 WT1      6785     TIP3     OH2      OT      -0.834000       15.9994           0
     20831 WT1      6785     TIP3     H1       HT       0.417000        1.0080           0
     20832 WT1      6785     TIP3     H2       HT       0.417000        1.0080           0
     20833 WT1      6786     TIP3     OH2      OT      -0.834000       15.9994           0
     20834 WT1      6786     TIP3     H1       HT       0.417000        1.0080           0
     20835 WT1      6786     TIP3     H2       HT       0.417000        1.0080           0
     20836 WT1      6787     TIP3     OH2      OT      -0.834000       15.9994           0
     20837 WT1      6787     TIP3     H1       HT       0.417000        1.0080           0
     20838 WT1      6787     TIP3     H2       HT       0.417000        1.0080           0
     20839 WT1      6788     TIP3     OH2      OT      -0.834000       15.9994           0
     20840 WT1      6788     TIP3     H1       HT       0.417000        1.0080           0
     20841 WT1      6788     TIP3     H2       HT       0.417000        1.0080           0
     20842 WT1      6789     TIP3     OH2      OT      -0.834000       15.9994           0
     20843 WT1      6789     TIP3     H1       HT       0.417000        1.0080           0
     20844 WT1      6789     TIP3     H2       HT       0.417000        1.0080           0
     20845 WT1      6790     TIP3     OH2      OT      -0.834000       15.9994           0
     20846 WT1      6790     TIP3     H1       HT       0.417000        1.0080           0
     20847 WT1      6790     TIP3     H2       HT       0.417000        1.0080           0
     20848 WT1      6791     TIP3     OH2      OT      -0.834000       15.9994           0
     20849 WT1      6791     TIP3     H1       HT       0.417000        1.0080           0
     20850 WT1      6791     TIP3     H2       HT       0.417000        1.0080           0
     20851 WT1      6792     TIP3     OH2      OT      -0.834000       15.9994           0
     20852 WT1      6792     TIP3     H1       HT       0.417000        1.0080           0
     20853 WT1      6792     TIP3     H2       HT       0.417000        1.0080           0
     20854 WT1      6793     TIP3     OH2      OT      -0.834000       15.9994           0
     20855 WT1      6793     TIP3     H1       HT       0.417000        1.0080           0
     20856 WT1      6793     TIP3     H2       HT       0.417000        1.0080           0
     20857 WT1      6794     TIP3     OH2      OT      -0.834000       15.9994           0
     20858 WT1      6794     TIP3     H1       HT       0.417000        1.0080           0
     20859 WT1      6794     TIP3     H2       HT       0.417000        1.0080           0
     20860 WT1      6795     TIP3     OH2      OT      -0.834000       15.9994           0
     20861 WT1      6795     TIP3     H1       HT       0.417000        1.0080           0
     20862 WT1      6795     TIP3     H2       HT       0.417000        1.0080           0
     20863 WT1      6796     TIP3     OH2      OT      -0.834000       15.9994           0
     20864 WT1      6796     TIP3     H1       HT       0.417000        1.0080           0
     20865 WT1      6796     TIP3     H2       HT       0.417000        1.0080           0
     20866 WT1      6797     TIP3     OH2      OT      -0.834000       15.9994           0
     20867 WT1      6797     TIP3     H1       HT       0.417000        1.0080           0
     20868 WT1      6797     TIP3     H2       HT       0.417000        1.0080           0
     20869 WT1      6799     TIP3     OH2      OT      -0.834000       15.9994           0
     20870 WT1      6799     TIP3     H1       HT       0.417000        1.0080           0
     20871 WT1      6799     TIP3     H2       HT       0.417000        1.0080           0
     20872 WT1      6800     TIP3     OH2      OT      -0.834000       15.9994           0
     20873 WT1      6800     TIP3     H1       HT       0.417000        1.0080           0
     20874 WT1      6800     TIP3     H2       HT       0.417000        1.0080           0
     20875 WT1      6801     TIP3     OH2      OT      -0.834000       15.9994           0
     20876 WT1      6801     TIP3     H1       HT       0.417000        1.0080           0
     20877 WT1      6801     TIP3     H2       HT       0.417000        1.0080           0
     20878 WT1      6802     TIP3     OH2      OT      -0.834000       15.9994           0
     20879 WT1      6802     TIP3     H1       HT       0.417000        1.0080           0
     20880 WT1      6802     TIP3     H2       HT       0.417000        1.0080           0
     20881 WT1      6803     TIP3     OH2      OT      -0.834000       15.9994           0
     20882 WT1      6803     TIP3     H1       HT       0.417000        1.0080           0
     20883 WT1      6803     TIP3     H2       HT       0.417000        1.0080           0
     20884 WT1      6804     TIP3     OH2      OT      -0.834000       15.9994           0
     20885 WT1      6804     TIP3     H1       HT       0.417000        1.0080           0
     20886 WT1      6804     TIP3     H2       HT       0.417000        1.0080           0
     20887 WT1      6805     TIP3     OH2      OT      -0.834000       15.9994           0
     20888 WT1      6805     TIP3     H1       HT       0.417000        1.0080           0
     20889 WT1      6805     TIP3     H2       HT       0.417000        1.0080           0
     20890 WT1      6806     TIP3     OH2      OT      -0.834000       15.9994           0
     20891 WT1      6806     TIP3     H1       HT       0.417000        1.0080           0
     20892 WT1      6806     TIP3     H2       HT       0.417000        1.0080           0
     20893 WT1      6807     TIP3     OH2      OT      -0.834000       15.9994           0
     20894 WT1      6807     TIP3     H1       HT       0.417000        1.0080           0
     20895 WT1      6807     TIP3     H2       HT       0.417000        1.0080           0
     20896 WT1      6808     TIP3     OH2      OT      -0.834000       15.9994           0
     20897 WT1      6808     TIP3     H1       HT       0.417000        1.0080           0
     20898 WT1      6808     TIP3     H2       HT       0.417000        1.0080           0
     20899 WT1      6809     TIP3     OH2      OT      -0.834000       15.9994           0
     20900 WT1      6809     TIP3     H1       HT       0.417000        1.0080           0
     20901 WT1      6809     TIP3     H2       HT       0.417000        1.0080           0
     20902 WT1      6810     TIP3     OH2      OT      -0.834000       15.9994           0
     20903 WT1      6810     TIP3     H1       HT       0.417000        1.0080           0
     20904 WT1      6810     TIP3     H2       HT       0.417000        1.0080           0
     20905 WT1      6811     TIP3     OH2      OT      -0.834000       15.9994           0
     20906 WT1      6811     TIP3     H1       HT       0.417000        1.0080           0
     20907 WT1      6811     TIP3     H2       HT       0.417000        1.0080           0
     20908 WT1      6812     TIP3     OH2      OT      -0.834000       15.9994           0
     20909 WT1      6812     TIP3     H1       HT       0.417000        1.0080           0
     20910 WT1      6812     TIP3     H2       HT       0.417000        1.0080           0
     20911 WT1      6813     TIP3     OH2      OT      -0.834000       15.9994           0
     20912 WT1      6813     TIP3     H1       HT       0.417000        1.0080           0
     20913 WT1      6813     TIP3     H2       HT       0.417000        1.0080           0
     20914 WT1      6814     TIP3     OH2      OT      -0.834000       15.9994           0
     20915 WT1      6814     TIP3     H1       HT       0.417000        1.0080           0
     20916 WT1      6814     TIP3     H2       HT       0.417000        1.0080           0
     20917 WT1      6815     TIP3     OH2      OT      -0.834000       15.9994           0
     20918 WT1      6815     TIP3     H1       HT       0.417000        1.0080           0
     20919 WT1      6815     TIP3     H2       HT       0.417000        1.0080           0
     20920 WT1      6816     TIP3     OH2      OT      -0.834000       15.9994           0
     20921 WT1      6816     TIP3     H1       HT       0.417000        1.0080           0
     20922 WT1      6816     TIP3     H2       HT       0.417000        1.0080           0
     20923 WT1      6817     TIP3     OH2      OT      -0.834000       15.9994           0
     20924 WT1      6817     TIP3     H1       HT       0.417000        1.0080           0
     20925 WT1      6817     TIP3     H2       HT       0.417000        1.0080           0
     20926 WT1      6818     TIP3     OH2      OT      -0.834000       15.9994           0
     20927 WT1      6818     TIP3     H1       HT       0.417000        1.0080           0
     20928 WT1      6818     TIP3     H2       HT       0.417000        1.0080           0
     20929 WT1      6819     TIP3     OH2      OT      -0.834000       15.9994           0
     20930 WT1      6819     TIP3     H1       HT       0.417000        1.0080           0
     20931 WT1      6819     TIP3     H2       HT       0.417000        1.0080           0
     20932 WT1      6820     TIP3     OH2      OT      -0.834000       15.9994           0
     20933 WT1      6820     TIP3     H1       HT       0.417000        1.0080           0
     20934 WT1      6820     TIP3     H2       HT       0.417000        1.0080           0
     20935 WT1      6821     TIP3     OH2      OT      -0.834000       15.9994           0
     20936 WT1      6821     TIP3     H1       HT       0.417000        1.0080           0
     20937 WT1      6821     TIP3     H2       HT       0.417000        1.0080           0
     20938 WT1      6822     TIP3     OH2      OT      -0.834000       15.9994           0
     20939 WT1      6822     TIP3     H1       HT       0.417000        1.0080           0
     20940 WT1      6822     TIP3     H2       HT       0.417000        1.0080           0
     20941 WT1      6823     TIP3     OH2      OT      -0.834000       15.9994           0
     20942 WT1      6823     TIP3     H1       HT       0.417000        1.0080           0
     20943 WT1      6823     TIP3     H2       HT       0.417000        1.0080           0
     20944 WT1      6824     TIP3     OH2      OT      -0.834000       15.9994           0
     20945 WT1      6824     TIP3     H1       HT       0.417000        1.0080           0
     20946 WT1      6824     TIP3     H2       HT       0.417000        1.0080           0
     20947 WT1      6825     TIP3     OH2      OT      -0.834000       15.9994           0
     20948 WT1      6825     TIP3     H1       HT       0.417000        1.0080           0
     20949 WT1      6825     TIP3     H2       HT       0.417000        1.0080           0
     20950 WT1      6826     TIP3     OH2      OT      -0.834000       15.9994           0
     20951 WT1      6826     TIP3     H1       HT       0.417000        1.0080           0
     20952 WT1      6826     TIP3     H2       HT       0.417000        1.0080           0
     20953 WT1      6827     TIP3     OH2      OT      -0.834000       15.9994           0
     20954 WT1      6827     TIP3     H1       HT       0.417000        1.0080           0
     20955 WT1      6827     TIP3     H2       HT       0.417000        1.0080           0
     20956 WT1      6828     TIP3     OH2      OT      -0.834000       15.9994           0
     20957 WT1      6828     TIP3     H1       HT       0.417000        1.0080           0
     20958 WT1      6828     TIP3     H2       HT       0.417000        1.0080           0
     20959 WT1      6829     TIP3     OH2      OT      -0.834000       15.9994           0
     20960 WT1      6829     TIP3     H1       HT       0.417000        1.0080           0
     20961 WT1      6829     TIP3     H2       HT       0.417000        1.0080           0
     20962 WT1      6830     TIP3     OH2      OT      -0.834000       15.9994           0
     20963 WT1      6830     TIP3     H1       HT       0.417000        1.0080           0
     20964 WT1      6830     TIP3     H2       HT       0.417000        1.0080           0
     20965 WT1      6831     TIP3     OH2      OT      -0.834000       15.9994           0
     20966 WT1      6831     TIP3     H1       HT       0.417000        1.0080           0
     20967 WT1      6831     TIP3     H2       HT       0.417000        1.0080           0
     20968 WT1      6832     TIP3     OH2      OT      -0.834000       15.9994           0
     20969 WT1      6832     TIP3     H1       HT       0.417000        1.0080           0
     20970 WT1      6832     TIP3     H2       HT       0.417000        1.0080           0
     20971 WT1      6833     TIP3     OH2      OT      -0.834000       15.9994           0
     20972 WT1      6833     TIP3     H1       HT       0.417000        1.0080           0
     20973 WT1      6833     TIP3     H2       HT       0.417000        1.0080           0
     20974 WT1      6834     TIP3     OH2      OT      -0.834000       15.9994           0
     20975 WT1      6834     TIP3     H1       HT       0.417000        1.0080           0
     20976 WT1      6834     TIP3     H2       HT       0.417000        1.0080           0
     20977 WT1      6835     TIP3     OH2      OT      -0.834000       15.9994           0
     20978 WT1      6835     TIP3     H1       HT       0.417000        1.0080           0
     20979 WT1      6835     TIP3     H2       HT       0.417000        1.0080           0
     20980 WT1      6836     TIP3     OH2      OT      -0.834000       15.9994           0
     20981 WT1      6836     TIP3     H1       HT       0.417000        1.0080           0
     20982 WT1      6836     TIP3     H2       HT       0.417000        1.0080           0
     20983 WT1      6837     TIP3     OH2      OT      -0.834000       15.9994           0
     20984 WT1      6837     TIP3     H1       HT       0.417000        1.0080           0
     20985 WT1      6837     TIP3     H2       HT       0.417000        1.0080           0
     20986 WT1      6838     TIP3     OH2      OT      -0.834000       15.9994           0
     20987 WT1      6838     TIP3     H1       HT       0.417000        1.0080           0
     20988 WT1      6838     TIP3     H2       HT       0.417000        1.0080           0
     20989 WT1      6839     TIP3     OH2      OT      -0.834000       15.9994           0
     20990 WT1      6839     TIP3     H1       HT       0.417000        1.0080           0
     20991 WT1      6839     TIP3     H2       HT       0.417000        1.0080           0
     20992 WT1      6840     TIP3     OH2      OT      -0.834000       15.9994           0
     20993 WT1      6840     TIP3     H1       HT       0.417000        1.0080           0
     20994 WT1      6840     TIP3     H2       HT       0.417000        1.0080           0
     20995 WT1      6841     TIP3     OH2      OT      -0.834000       15.9994           0
     20996 WT1      6841     TIP3     H1       HT       0.417000        1.0080           0
     20997 WT1      6841     TIP3     H2       HT       0.417000        1.0080           0
     20998 WT1      6842     TIP3     OH2      OT      -0.834000       15.9994           0
     20999 WT1      6842     TIP3     H1       HT       0.417000        1.0080           0
     21000 WT1      6842     TIP3     H2       HT       0.417000        1.0080           0
     21001 WT1      6843     TIP3     OH2      OT      -0.834000       15.9994           0
     21002 WT1      6843     TIP3     H1       HT       0.417000        1.0080           0
     21003 WT1      6843     TIP3     H2       HT       0.417000        1.0080           0
     21004 WT1      6844     TIP3     OH2      OT      -0.834000       15.9994           0
     21005 WT1      6844     TIP3     H1       HT       0.417000        1.0080           0
     21006 WT1      6844     TIP3     H2       HT       0.417000        1.0080           0
     21007 WT1      6845     TIP3     OH2      OT      -0.834000       15.9994           0
     21008 WT1      6845     TIP3     H1       HT       0.417000        1.0080           0
     21009 WT1      6845     TIP3     H2       HT       0.417000        1.0080           0
     21010 WT1      6846     TIP3     OH2      OT      -0.834000       15.9994           0
     21011 WT1      6846     TIP3     H1       HT       0.417000        1.0080           0
     21012 WT1      6846     TIP3     H2       HT       0.417000        1.0080           0
     21013 WT1      6847     TIP3     OH2      OT      -0.834000       15.9994           0
     21014 WT1      6847     TIP3     H1       HT       0.417000        1.0080           0
     21015 WT1      6847     TIP3     H2       HT       0.417000        1.0080           0
     21016 WT1      6848     TIP3     OH2      OT      -0.834000       15.9994           0
     21017 WT1      6848     TIP3     H1       HT       0.417000        1.0080           0
     21018 WT1      6848     TIP3     H2       HT       0.417000        1.0080           0
     21019 WT1      6849     TIP3     OH2      OT      -0.834000       15.9994           0
     21020 WT1      6849     TIP3     H1       HT       0.417000        1.0080           0
     21021 WT1      6849     TIP3     H2       HT       0.417000        1.0080           0
     21022 WT1      6850     TIP3     OH2      OT      -0.834000       15.9994           0
     21023 WT1      6850     TIP3     H1       HT       0.417000        1.0080           0
     21024 WT1      6850     TIP3     H2       HT       0.417000        1.0080           0
     21025 WT1      6851     TIP3     OH2      OT      -0.834000       15.9994           0
     21026 WT1      6851     TIP3     H1       HT       0.417000        1.0080           0
     21027 WT1      6851     TIP3     H2       HT       0.417000        1.0080           0
     21028 WT1      6852     TIP3     OH2      OT      -0.834000       15.9994           0
     21029 WT1      6852     TIP3     H1       HT       0.417000        1.0080           0
     21030 WT1      6852     TIP3     H2       HT       0.417000        1.0080           0
     21031 WT1      6853     TIP3     OH2      OT      -0.834000       15.9994           0
     21032 WT1      6853     TIP3     H1       HT       0.417000        1.0080           0
     21033 WT1      6853     TIP3     H2       HT       0.417000        1.0080           0
     21034 WT1      6854     TIP3     OH2      OT      -0.834000       15.9994           0
     21035 WT1      6854     TIP3     H1       HT       0.417000        1.0080           0
     21036 WT1      6854     TIP3     H2       HT       0.417000        1.0080           0
     21037 WT1      6855     TIP3     OH2      OT      -0.834000       15.9994           0
     21038 WT1      6855     TIP3     H1       HT       0.417000        1.0080           0
     21039 WT1      6855     TIP3     H2       HT       0.417000        1.0080           0
     21040 WT1      6856     TIP3     OH2      OT      -0.834000       15.9994           0
     21041 WT1      6856     TIP3     H1       HT       0.417000        1.0080           0
     21042 WT1      6856     TIP3     H2       HT       0.417000        1.0080           0
     21043 WT1      6857     TIP3     OH2      OT      -0.834000       15.9994           0
     21044 WT1      6857     TIP3     H1       HT       0.417000        1.0080           0
     21045 WT1      6857     TIP3     H2       HT       0.417000        1.0080           0
     21046 WT1      6858     TIP3     OH2      OT      -0.834000       15.9994           0
     21047 WT1      6858     TIP3     H1       HT       0.417000        1.0080           0
     21048 WT1      6858     TIP3     H2       HT       0.417000        1.0080           0
     21049 WT1      6859     TIP3     OH2      OT      -0.834000       15.9994           0
     21050 WT1      6859     TIP3     H1       HT       0.417000        1.0080           0
     21051 WT1      6859     TIP3     H2       HT       0.417000        1.0080           0
     21052 WT1      6860     TIP3     OH2      OT      -0.834000       15.9994           0
     21053 WT1      6860     TIP3     H1       HT       0.417000        1.0080           0
     21054 WT1      6860     TIP3     H2       HT       0.417000        1.0080           0
     21055 WT1      6861     TIP3     OH2      OT      -0.834000       15.9994           0
     21056 WT1      6861     TIP3     H1       HT       0.417000        1.0080           0
     21057 WT1      6861     TIP3     H2       HT       0.417000        1.0080           0
     21058 WT1      6862     TIP3     OH2      OT      -0.834000       15.9994           0
     21059 WT1      6862     TIP3     H1       HT       0.417000        1.0080           0
     21060 WT1      6862     TIP3     H2       HT       0.417000        1.0080           0
     21061 WT1      6863     TIP3     OH2      OT      -0.834000       15.9994           0
     21062 WT1      6863     TIP3     H1       HT       0.417000        1.0080           0
     21063 WT1      6863     TIP3     H2       HT       0.417000        1.0080           0
     21064 WT1      6864     TIP3     OH2      OT      -0.834000       15.9994           0
     21065 WT1      6864     TIP3     H1       HT       0.417000        1.0080           0
     21066 WT1      6864     TIP3     H2       HT       0.417000        1.0080           0
     21067 WT1      6865     TIP3     OH2      OT      -0.834000       15.9994           0
     21068 WT1      6865     TIP3     H1       HT       0.417000        1.0080           0
     21069 WT1      6865     TIP3     H2       HT       0.417000        1.0080           0
     21070 WT1      6866     TIP3     OH2      OT      -0.834000       15.9994           0
     21071 WT1      6866     TIP3     H1       HT       0.417000        1.0080           0
     21072 WT1      6866     TIP3     H2       HT       0.417000        1.0080           0
     21073 WT1      6867     TIP3     OH2      OT      -0.834000       15.9994           0
     21074 WT1      6867     TIP3     H1       HT       0.417000        1.0080           0
     21075 WT1      6867     TIP3     H2       HT       0.417000        1.0080           0
     21076 WT1      6868     TIP3     OH2      OT      -0.834000       15.9994           0
     21077 WT1      6868     TIP3     H1       HT       0.417000        1.0080           0
     21078 WT1      6868     TIP3     H2       HT       0.417000        1.0080           0
     21079 WT1      6869     TIP3     OH2      OT      -0.834000       15.9994           0
     21080 WT1      6869     TIP3     H1       HT       0.417000        1.0080           0
     21081 WT1      6869     TIP3     H2       HT       0.417000        1.0080           0
     21082 WT1      6870     TIP3     OH2      OT      -0.834000       15.9994           0
     21083 WT1      6870     TIP3     H1       HT       0.417000        1.0080           0
     21084 WT1      6870     TIP3     H2       HT       0.417000        1.0080           0
     21085 WT1      6871     TIP3     OH2      OT      -0.834000       15.9994           0
     21086 WT1      6871     TIP3     H1       HT       0.417000        1.0080           0
     21087 WT1      6871     TIP3     H2       HT       0.417000        1.0080           0
     21088 WT1      6872     TIP3     OH2      OT      -0.834000       15.9994           0
     21089 WT1      6872     TIP3     H1       HT       0.417000        1.0080           0
     21090 WT1      6872     TIP3     H2       HT       0.417000        1.0080           0
     21091 WT1      6873     TIP3     OH2      OT      -0.834000       15.9994           0
     21092 WT1      6873     TIP3     H1       HT       0.417000        1.0080           0
     21093 WT1      6873     TIP3     H2       HT       0.417000        1.0080           0
     21094 WT1      6874     TIP3     OH2      OT      -0.834000       15.9994           0
     21095 WT1      6874     TIP3     H1       HT       0.417000        1.0080           0
     21096 WT1      6874     TIP3     H2       HT       0.417000        1.0080           0
     21097 WT1      6875     TIP3     OH2      OT      -0.834000       15.9994           0
     21098 WT1      6875     TIP3     H1       HT       0.417000        1.0080           0
     21099 WT1      6875     TIP3     H2       HT       0.417000        1.0080           0
     21100 WT1      6876     TIP3     OH2      OT      -0.834000       15.9994           0
     21101 WT1      6876     TIP3     H1       HT       0.417000        1.0080           0
     21102 WT1      6876     TIP3     H2       HT       0.417000        1.0080           0
     21103 WT1      6877     TIP3     OH2      OT      -0.834000       15.9994           0
     21104 WT1      6877     TIP3     H1       HT       0.417000        1.0080           0
     21105 WT1      6877     TIP3     H2       HT       0.417000        1.0080           0
     21106 WT1      6878     TIP3     OH2      OT      -0.834000       15.9994           0
     21107 WT1      6878     TIP3     H1       HT       0.417000        1.0080           0
     21108 WT1      6878     TIP3     H2       HT       0.417000        1.0080           0
     21109 WT1      6879     TIP3     OH2      OT      -0.834000       15.9994           0
     21110 WT1      6879     TIP3     H1       HT       0.417000        1.0080           0
     21111 WT1      6879     TIP3     H2       HT       0.417000        1.0080           0
     21112 WT1      6880     TIP3     OH2      OT      -0.834000       15.9994           0
     21113 WT1      6880     TIP3     H1       HT       0.417000        1.0080           0
     21114 WT1      6880     TIP3     H2       HT       0.417000        1.0080           0
     21115 WT1      6881     TIP3     OH2      OT      -0.834000       15.9994           0
     21116 WT1      6881     TIP3     H1       HT       0.417000        1.0080           0
     21117 WT1      6881     TIP3     H2       HT       0.417000        1.0080           0
     21118 WT1      6882     TIP3     OH2      OT      -0.834000       15.9994           0
     21119 WT1      6882     TIP3     H1       HT       0.417000        1.0080           0
     21120 WT1      6882     TIP3     H2       HT       0.417000        1.0080           0
     21121 WT1      6883     TIP3     OH2      OT      -0.834000       15.9994           0
     21122 WT1      6883     TIP3     H1       HT       0.417000        1.0080           0
     21123 WT1      6883     TIP3     H2       HT       0.417000        1.0080           0
     21124 WT1      6884     TIP3     OH2      OT      -0.834000       15.9994           0
     21125 WT1      6884     TIP3     H1       HT       0.417000        1.0080           0
     21126 WT1      6884     TIP3     H2       HT       0.417000        1.0080           0
     21127 WT1      6886     TIP3     OH2      OT      -0.834000       15.9994           0
     21128 WT1      6886     TIP3     H1       HT       0.417000        1.0080           0
     21129 WT1      6886     TIP3     H2       HT       0.417000        1.0080           0
     21130 WT1      6887     TIP3     OH2      OT      -0.834000       15.9994           0
     21131 WT1      6887     TIP3     H1       HT       0.417000        1.0080           0
     21132 WT1      6887     TIP3     H2       HT       0.417000        1.0080           0
     21133 WT1      6888     TIP3     OH2      OT      -0.834000       15.9994           0
     21134 WT1      6888     TIP3     H1       HT       0.417000        1.0080           0
     21135 WT1      6888     TIP3     H2       HT       0.417000        1.0080           0
     21136 WT1      6889     TIP3     OH2      OT      -0.834000       15.9994           0
     21137 WT1      6889     TIP3     H1       HT       0.417000        1.0080           0
     21138 WT1      6889     TIP3     H2       HT       0.417000        1.0080           0
     21139 WT1      6890     TIP3     OH2      OT      -0.834000       15.9994           0
     21140 WT1      6890     TIP3     H1       HT       0.417000        1.0080           0
     21141 WT1      6890     TIP3     H2       HT       0.417000        1.0080           0
     21142 WT1      6891     TIP3     OH2      OT      -0.834000       15.9994           0
     21143 WT1      6891     TIP3     H1       HT       0.417000        1.0080           0
     21144 WT1      6891     TIP3     H2       HT       0.417000        1.0080           0
     21145 WT1      6892     TIP3     OH2      OT      -0.834000       15.9994           0
     21146 WT1      6892     TIP3     H1       HT       0.417000        1.0080           0
     21147 WT1      6892     TIP3     H2       HT       0.417000        1.0080           0
     21148 WT1      6893     TIP3     OH2      OT      -0.834000       15.9994           0
     21149 WT1      6893     TIP3     H1       HT       0.417000        1.0080           0
     21150 WT1      6893     TIP3     H2       HT       0.417000        1.0080           0
     21151 WT1      6894     TIP3     OH2      OT      -0.834000       15.9994           0
     21152 WT1      6894     TIP3     H1       HT       0.417000        1.0080           0
     21153 WT1      6894     TIP3     H2       HT       0.417000        1.0080           0
     21154 WT1      6895     TIP3     OH2      OT      -0.834000       15.9994           0
     21155 WT1      6895     TIP3     H1       HT       0.417000        1.0080           0
     21156 WT1      6895     TIP3     H2       HT       0.417000        1.0080           0
     21157 WT1      6896     TIP3     OH2      OT      -0.834000       15.9994           0
     21158 WT1      6896     TIP3     H1       HT       0.417000        1.0080           0
     21159 WT1      6896     TIP3     H2       HT       0.417000        1.0080           0
     21160 WT1      6897     TIP3     OH2      OT      -0.834000       15.9994           0
     21161 WT1      6897     TIP3     H1       HT       0.417000        1.0080           0
     21162 WT1      6897     TIP3     H2       HT       0.417000        1.0080           0
     21163 WT1      6898     TIP3     OH2      OT      -0.834000       15.9994           0
     21164 WT1      6898     TIP3     H1       HT       0.417000        1.0080           0
     21165 WT1      6898     TIP3     H2       HT       0.417000        1.0080           0
     21166 WT1      6899     TIP3     OH2      OT      -0.834000       15.9994           0
     21167 WT1      6899     TIP3     H1       HT       0.417000        1.0080           0
     21168 WT1      6899     TIP3     H2       HT       0.417000        1.0080           0
     21169 WT1      6900     TIP3     OH2      OT      -0.834000       15.9994           0
     21170 WT1      6900     TIP3     H1       HT       0.417000        1.0080           0
     21171 WT1      6900     TIP3     H2       HT       0.417000        1.0080           0
     21172 WT1      6901     TIP3     OH2      OT      -0.834000       15.9994           0
     21173 WT1      6901     TIP3     H1       HT       0.417000        1.0080           0
     21174 WT1      6901     TIP3     H2       HT       0.417000        1.0080           0
     21175 WT1      6902     TIP3     OH2      OT      -0.834000       15.9994           0
     21176 WT1      6902     TIP3     H1       HT       0.417000        1.0080           0
     21177 WT1      6902     TIP3     H2       HT       0.417000        1.0080           0
     21178 WT1      6903     TIP3     OH2      OT      -0.834000       15.9994           0
     21179 WT1      6903     TIP3     H1       HT       0.417000        1.0080           0
     21180 WT1      6903     TIP3     H2       HT       0.417000        1.0080           0
     21181 WT1      6904     TIP3     OH2      OT      -0.834000       15.9994           0
     21182 WT1      6904     TIP3     H1       HT       0.417000        1.0080           0
     21183 WT1      6904     TIP3     H2       HT       0.417000        1.0080           0
     21184 WT1      6905     TIP3     OH2      OT      -0.834000       15.9994           0
     21185 WT1      6905     TIP3     H1       HT       0.417000        1.0080           0
     21186 WT1      6905     TIP3     H2       HT       0.417000        1.0080           0
     21187 WT1      6906     TIP3     OH2      OT      -0.834000       15.9994           0
     21188 WT1      6906     TIP3     H1       HT       0.417000        1.0080           0
     21189 WT1      6906     TIP3     H2       HT       0.417000        1.0080           0
     21190 WT1      6907     TIP3     OH2      OT      -0.834000       15.9994           0
     21191 WT1      6907     TIP3     H1       HT       0.417000        1.0080           0
     21192 WT1      6907     TIP3     H2       HT       0.417000        1.0080           0
     21193 WT1      6908     TIP3     OH2      OT      -0.834000       15.9994           0
     21194 WT1      6908     TIP3     H1       HT       0.417000        1.0080           0
     21195 WT1      6908     TIP3     H2       HT       0.417000        1.0080           0
     21196 WT1      6909     TIP3     OH2      OT      -0.834000       15.9994           0
     21197 WT1      6909     TIP3     H1       HT       0.417000        1.0080           0
     21198 WT1      6909     TIP3     H2       HT       0.417000        1.0080           0
     21199 WT1      6910     TIP3     OH2      OT      -0.834000       15.9994           0
     21200 WT1      6910     TIP3     H1       HT       0.417000        1.0080           0
     21201 WT1      6910     TIP3     H2       HT       0.417000        1.0080           0
     21202 WT1      6911     TIP3     OH2      OT      -0.834000       15.9994           0
     21203 WT1      6911     TIP3     H1       HT       0.417000        1.0080           0
     21204 WT1      6911     TIP3     H2       HT       0.417000        1.0080           0
     21205 WT1      6912     TIP3     OH2      OT      -0.834000       15.9994           0
     21206 WT1      6912     TIP3     H1       HT       0.417000        1.0080           0
     21207 WT1      6912     TIP3     H2       HT       0.417000        1.0080           0
     21208 WT1      6913     TIP3     OH2      OT      -0.834000       15.9994           0
     21209 WT1      6913     TIP3     H1       HT       0.417000        1.0080           0
     21210 WT1      6913     TIP3     H2       HT       0.417000        1.0080           0
     21211 WT1      6914     TIP3     OH2      OT      -0.834000       15.9994           0
     21212 WT1      6914     TIP3     H1       HT       0.417000        1.0080           0
     21213 WT1      6914     TIP3     H2       HT       0.417000        1.0080           0
     21214 WT1      6915     TIP3     OH2      OT      -0.834000       15.9994           0
     21215 WT1      6915     TIP3     H1       HT       0.417000        1.0080           0
     21216 WT1      6915     TIP3     H2       HT       0.417000        1.0080           0
     21217 WT1      6916     TIP3     OH2      OT      -0.834000       15.9994           0
     21218 WT1      6916     TIP3     H1       HT       0.417000        1.0080           0
     21219 WT1      6916     TIP3     H2       HT       0.417000        1.0080           0
     21220 WT1      6917     TIP3     OH2      OT      -0.834000       15.9994           0
     21221 WT1      6917     TIP3     H1       HT       0.417000        1.0080           0
     21222 WT1      6917     TIP3     H2       HT       0.417000        1.0080           0
     21223 WT1      6918     TIP3     OH2      OT      -0.834000       15.9994           0
     21224 WT1      6918     TIP3     H1       HT       0.417000        1.0080           0
     21225 WT1      6918     TIP3     H2       HT       0.417000        1.0080           0
     21226 WT1      6919     TIP3     OH2      OT      -0.834000       15.9994           0
     21227 WT1      6919     TIP3     H1       HT       0.417000        1.0080           0
     21228 WT1      6919     TIP3     H2       HT       0.417000        1.0080           0
     21229 WT1      6920     TIP3     OH2      OT      -0.834000       15.9994           0
     21230 WT1      6920     TIP3     H1       HT       0.417000        1.0080           0
     21231 WT1      6920     TIP3     H2       HT       0.417000        1.0080           0
     21232 WT1      6921     TIP3     OH2      OT      -0.834000       15.9994           0
     21233 WT1      6921     TIP3     H1       HT       0.417000        1.0080           0
     21234 WT1      6921     TIP3     H2       HT       0.417000        1.0080           0
     21235 WT1      6922     TIP3     OH2      OT      -0.834000       15.9994           0
     21236 WT1      6922     TIP3     H1       HT       0.417000        1.0080           0
     21237 WT1      6922     TIP3     H2       HT       0.417000        1.0080           0
     21238 WT1      6923     TIP3     OH2      OT      -0.834000       15.9994           0
     21239 WT1      6923     TIP3     H1       HT       0.417000        1.0080           0
     21240 WT1      6923     TIP3     H2       HT       0.417000        1.0080           0
     21241 WT1      6924     TIP3     OH2      OT      -0.834000       15.9994           0
     21242 WT1      6924     TIP3     H1       HT       0.417000        1.0080           0
     21243 WT1      6924     TIP3     H2       HT       0.417000        1.0080           0
     21244 WT1      6925     TIP3     OH2      OT      -0.834000       15.9994           0
     21245 WT1      6925     TIP3     H1       HT       0.417000        1.0080           0
     21246 WT1      6925     TIP3     H2       HT       0.417000        1.0080           0
     21247 WT1      6926     TIP3     OH2      OT      -0.834000       15.9994           0
     21248 WT1      6926     TIP3     H1       HT       0.417000        1.0080           0
     21249 WT1      6926     TIP3     H2       HT       0.417000        1.0080           0
     21250 WT1      6927     TIP3     OH2      OT      -0.834000       15.9994           0
     21251 WT1      6927     TIP3     H1       HT       0.417000        1.0080           0
     21252 WT1      6927     TIP3     H2       HT       0.417000        1.0080           0
     21253 WT1      6928     TIP3     OH2      OT      -0.834000       15.9994           0
     21254 WT1      6928     TIP3     H1       HT       0.417000        1.0080           0
     21255 WT1      6928     TIP3     H2       HT       0.417000        1.0080           0
     21256 WT1      6929     TIP3     OH2      OT      -0.834000       15.9994           0
     21257 WT1      6929     TIP3     H1       HT       0.417000        1.0080           0
     21258 WT1      6929     TIP3     H2       HT       0.417000        1.0080           0
     21259 WT1      6930     TIP3     OH2      OT      -0.834000       15.9994           0
     21260 WT1      6930     TIP3     H1       HT       0.417000        1.0080           0
     21261 WT1      6930     TIP3     H2       HT       0.417000        1.0080           0
     21262 WT1      6931     TIP3     OH2      OT      -0.834000       15.9994           0
     21263 WT1      6931     TIP3     H1       HT       0.417000        1.0080           0
     21264 WT1      6931     TIP3     H2       HT       0.417000        1.0080           0
     21265 WT1      6932     TIP3     OH2      OT      -0.834000       15.9994           0
     21266 WT1      6932     TIP3     H1       HT       0.417000        1.0080           0
     21267 WT1      6932     TIP3     H2       HT       0.417000        1.0080           0
     21268 WT1      6933     TIP3     OH2      OT      -0.834000       15.9994           0
     21269 WT1      6933     TIP3     H1       HT       0.417000        1.0080           0
     21270 WT1      6933     TIP3     H2       HT       0.417000        1.0080           0
     21271 WT1      6934     TIP3     OH2      OT      -0.834000       15.9994           0
     21272 WT1      6934     TIP3     H1       HT       0.417000        1.0080           0
     21273 WT1      6934     TIP3     H2       HT       0.417000        1.0080           0
     21274 WT1      6935     TIP3     OH2      OT      -0.834000       15.9994           0
     21275 WT1      6935     TIP3     H1       HT       0.417000        1.0080           0
     21276 WT1      6935     TIP3     H2       HT       0.417000        1.0080           0
     21277 WT1      6936     TIP3     OH2      OT      -0.834000       15.9994           0
     21278 WT1      6936     TIP3     H1       HT       0.417000        1.0080           0
     21279 WT1      6936     TIP3     H2       HT       0.417000        1.0080           0
     21280 WT1      6937     TIP3     OH2      OT      -0.834000       15.9994           0
     21281 WT1      6937     TIP3     H1       HT       0.417000        1.0080           0
     21282 WT1      6937     TIP3     H2       HT       0.417000        1.0080           0
     21283 WT1      6938     TIP3     OH2      OT      -0.834000       15.9994           0
     21284 WT1      6938     TIP3     H1       HT       0.417000        1.0080           0
     21285 WT1      6938     TIP3     H2       HT       0.417000        1.0080           0
     21286 WT1      6939     TIP3     OH2      OT      -0.834000       15.9994           0
     21287 WT1      6939     TIP3     H1       HT       0.417000        1.0080           0
     21288 WT1      6939     TIP3     H2       HT       0.417000        1.0080           0
     21289 WT1      6940     TIP3     OH2      OT      -0.834000       15.9994           0
     21290 WT1      6940     TIP3     H1       HT       0.417000        1.0080           0
     21291 WT1      6940     TIP3     H2       HT       0.417000        1.0080           0
     21292 WT1      6941     TIP3     OH2      OT      -0.834000       15.9994           0
     21293 WT1      6941     TIP3     H1       HT       0.417000        1.0080           0
     21294 WT1      6941     TIP3     H2       HT       0.417000        1.0080           0
     21295 WT1      6942     TIP3     OH2      OT      -0.834000       15.9994           0
     21296 WT1      6942     TIP3     H1       HT       0.417000        1.0080           0
     21297 WT1      6942     TIP3     H2       HT       0.417000        1.0080           0
     21298 WT1      6943     TIP3     OH2      OT      -0.834000       15.9994           0
     21299 WT1      6943     TIP3     H1       HT       0.417000        1.0080           0
     21300 WT1      6943     TIP3     H2       HT       0.417000        1.0080           0
     21301 WT1      6944     TIP3     OH2      OT      -0.834000       15.9994           0
     21302 WT1      6944     TIP3     H1       HT       0.417000        1.0080           0
     21303 WT1      6944     TIP3     H2       HT       0.417000        1.0080           0
     21304 WT1      6945     TIP3     OH2      OT      -0.834000       15.9994           0
     21305 WT1      6945     TIP3     H1       HT       0.417000        1.0080           0
     21306 WT1      6945     TIP3     H2       HT       0.417000        1.0080           0
     21307 WT1      6946     TIP3     OH2      OT      -0.834000       15.9994           0
     21308 WT1      6946     TIP3     H1       HT       0.417000        1.0080           0
     21309 WT1      6946     TIP3     H2       HT       0.417000        1.0080           0
     21310 WT1      6947     TIP3     OH2      OT      -0.834000       15.9994           0
     21311 WT1      6947     TIP3     H1       HT       0.417000        1.0080           0
     21312 WT1      6947     TIP3     H2       HT       0.417000        1.0080           0
     21313 WT1      6948     TIP3     OH2      OT      -0.834000       15.9994           0
     21314 WT1      6948     TIP3     H1       HT       0.417000        1.0080           0
     21315 WT1      6948     TIP3     H2       HT       0.417000        1.0080           0
     21316 WT1      6949     TIP3     OH2      OT      -0.834000       15.9994           0
     21317 WT1      6949     TIP3     H1       HT       0.417000        1.0080           0
     21318 WT1      6949     TIP3     H2       HT       0.417000        1.0080           0
     21319 WT1      6950     TIP3     OH2      OT      -0.834000       15.9994           0
     21320 WT1      6950     TIP3     H1       HT       0.417000        1.0080           0
     21321 WT1      6950     TIP3     H2       HT       0.417000        1.0080           0
     21322 WT1      6951     TIP3     OH2      OT      -0.834000       15.9994           0
     21323 WT1      6951     TIP3     H1       HT       0.417000        1.0080           0
     21324 WT1      6951     TIP3     H2       HT       0.417000        1.0080           0
     21325 WT1      6952     TIP3     OH2      OT      -0.834000       15.9994           0
     21326 WT1      6952     TIP3     H1       HT       0.417000        1.0080           0
     21327 WT1      6952     TIP3     H2       HT       0.417000        1.0080           0
     21328 WT1      6953     TIP3     OH2      OT      -0.834000       15.9994           0
     21329 WT1      6953     TIP3     H1       HT       0.417000        1.0080           0
     21330 WT1      6953     TIP3     H2       HT       0.417000        1.0080           0
     21331 WT1      6954     TIP3     OH2      OT      -0.834000       15.9994           0
     21332 WT1      6954     TIP3     H1       HT       0.417000        1.0080           0
     21333 WT1      6954     TIP3     H2       HT       0.417000        1.0080           0
     21334 WT1      6955     TIP3     OH2      OT      -0.834000       15.9994           0
     21335 WT1      6955     TIP3     H1       HT       0.417000        1.0080           0
     21336 WT1      6955     TIP3     H2       HT       0.417000        1.0080           0
     21337 WT1      6956     TIP3     OH2      OT      -0.834000       15.9994           0
     21338 WT1      6956     TIP3     H1       HT       0.417000        1.0080           0
     21339 WT1      6956     TIP3     H2       HT       0.417000        1.0080           0
     21340 WT1      6957     TIP3     OH2      OT      -0.834000       15.9994           0
     21341 WT1      6957     TIP3     H1       HT       0.417000        1.0080           0
     21342 WT1      6957     TIP3     H2       HT       0.417000        1.0080           0
     21343 WT1      6958     TIP3     OH2      OT      -0.834000       15.9994           0
     21344 WT1      6958     TIP3     H1       HT       0.417000        1.0080           0
     21345 WT1      6958     TIP3     H2       HT       0.417000        1.0080           0
     21346 WT1      6959     TIP3     OH2      OT      -0.834000       15.9994           0
     21347 WT1      6959     TIP3     H1       HT       0.417000        1.0080           0
     21348 WT1      6959     TIP3     H2       HT       0.417000        1.0080           0
     21349 WT1      6960     TIP3     OH2      OT      -0.834000       15.9994           0
     21350 WT1      6960     TIP3     H1       HT       0.417000        1.0080           0
     21351 WT1      6960     TIP3     H2       HT       0.417000        1.0080           0
     21352 WT1      6961     TIP3     OH2      OT      -0.834000       15.9994           0
     21353 WT1      6961     TIP3     H1       HT       0.417000        1.0080           0
     21354 WT1      6961     TIP3     H2       HT       0.417000        1.0080           0
     21355 WT1      6962     TIP3     OH2      OT      -0.834000       15.9994           0
     21356 WT1      6962     TIP3     H1       HT       0.417000        1.0080           0
     21357 WT1      6962     TIP3     H2       HT       0.417000        1.0080           0
     21358 WT1      6963     TIP3     OH2      OT      -0.834000       15.9994           0
     21359 WT1      6963     TIP3     H1       HT       0.417000        1.0080           0
     21360 WT1      6963     TIP3     H2       HT       0.417000        1.0080           0
     21361 WT1      6964     TIP3     OH2      OT      -0.834000       15.9994           0
     21362 WT1      6964     TIP3     H1       HT       0.417000        1.0080           0
     21363 WT1      6964     TIP3     H2       HT       0.417000        1.0080           0
     21364 WT1      6965     TIP3     OH2      OT      -0.834000       15.9994           0
     21365 WT1      6965     TIP3     H1       HT       0.417000        1.0080           0
     21366 WT1      6965     TIP3     H2       HT       0.417000        1.0080           0
     21367 WT1      6966     TIP3     OH2      OT      -0.834000       15.9994           0
     21368 WT1      6966     TIP3     H1       HT       0.417000        1.0080           0
     21369 WT1      6966     TIP3     H2       HT       0.417000        1.0080           0
     21370 WT1      6967     TIP3     OH2      OT      -0.834000       15.9994           0
     21371 WT1      6967     TIP3     H1       HT       0.417000        1.0080           0
     21372 WT1      6967     TIP3     H2       HT       0.417000        1.0080           0
     21373 WT1      6968     TIP3     OH2      OT      -0.834000       15.9994           0
     21374 WT1      6968     TIP3     H1       HT       0.417000        1.0080           0
     21375 WT1      6968     TIP3     H2       HT       0.417000        1.0080           0
     21376 WT1      6969     TIP3     OH2      OT      -0.834000       15.9994           0
     21377 WT1      6969     TIP3     H1       HT       0.417000        1.0080           0
     21378 WT1      6969     TIP3     H2       HT       0.417000        1.0080           0
     21379 WT1      6970     TIP3     OH2      OT      -0.834000       15.9994           0
     21380 WT1      6970     TIP3     H1       HT       0.417000        1.0080           0
     21381 WT1      6970     TIP3     H2       HT       0.417000        1.0080           0
     21382 WT1      6971     TIP3     OH2      OT      -0.834000       15.9994           0
     21383 WT1      6971     TIP3     H1       HT       0.417000        1.0080           0
     21384 WT1      6971     TIP3     H2       HT       0.417000        1.0080           0
     21385 WT1      6972     TIP3     OH2      OT      -0.834000       15.9994           0
     21386 WT1      6972     TIP3     H1       HT       0.417000        1.0080           0
     21387 WT1      6972     TIP3     H2       HT       0.417000        1.0080           0
     21388 WT1      6973     TIP3     OH2      OT      -0.834000       15.9994           0
     21389 WT1      6973     TIP3     H1       HT       0.417000        1.0080           0
     21390 WT1      6973     TIP3     H2       HT       0.417000        1.0080           0
     21391 WT1      6974     TIP3     OH2      OT      -0.834000       15.9994           0
     21392 WT1      6974     TIP3     H1       HT       0.417000        1.0080           0
     21393 WT1      6974     TIP3     H2       HT       0.417000        1.0080           0
     21394 WT1      6975     TIP3     OH2      OT      -0.834000       15.9994           0
     21395 WT1      6975     TIP3     H1       HT       0.417000        1.0080           0
     21396 WT1      6975     TIP3     H2       HT       0.417000        1.0080           0
     21397 WT1      6976     TIP3     OH2      OT      -0.834000       15.9994           0
     21398 WT1      6976     TIP3     H1       HT       0.417000        1.0080           0
     21399 WT1      6976     TIP3     H2       HT       0.417000        1.0080           0
     21400 WT1      6977     TIP3     OH2      OT      -0.834000       15.9994           0
     21401 WT1      6977     TIP3     H1       HT       0.417000        1.0080           0
     21402 WT1      6977     TIP3     H2       HT       0.417000        1.0080           0
     21403 WT1      6978     TIP3     OH2      OT      -0.834000       15.9994           0
     21404 WT1      6978     TIP3     H1       HT       0.417000        1.0080           0
     21405 WT1      6978     TIP3     H2       HT       0.417000        1.0080           0
     21406 WT1      6979     TIP3     OH2      OT      -0.834000       15.9994           0
     21407 WT1      6979     TIP3     H1       HT       0.417000        1.0080           0
     21408 WT1      6979     TIP3     H2       HT       0.417000        1.0080           0
     21409 WT1      6980     TIP3     OH2      OT      -0.834000       15.9994           0
     21410 WT1      6980     TIP3     H1       HT       0.417000        1.0080           0
     21411 WT1      6980     TIP3     H2       HT       0.417000        1.0080           0
     21412 WT1      6981     TIP3     OH2      OT      -0.834000       15.9994           0
     21413 WT1      6981     TIP3     H1       HT       0.417000        1.0080           0
     21414 WT1      6981     TIP3     H2       HT       0.417000        1.0080           0
     21415 WT1      6982     TIP3     OH2      OT      -0.834000       15.9994           0
     21416 WT1      6982     TIP3     H1       HT       0.417000        1.0080           0
     21417 WT1      6982     TIP3     H2       HT       0.417000        1.0080           0
     21418 WT1      6983     TIP3     OH2      OT      -0.834000       15.9994           0
     21419 WT1      6983     TIP3     H1       HT       0.417000        1.0080           0
     21420 WT1      6983     TIP3     H2       HT       0.417000        1.0080           0
     21421 WT1      6984     TIP3     OH2      OT      -0.834000       15.9994           0
     21422 WT1      6984     TIP3     H1       HT       0.417000        1.0080           0
     21423 WT1      6984     TIP3     H2       HT       0.417000        1.0080           0
     21424 WT1      6985     TIP3     OH2      OT      -0.834000       15.9994           0
     21425 WT1      6985     TIP3     H1       HT       0.417000        1.0080           0
     21426 WT1      6985     TIP3     H2       HT       0.417000        1.0080           0
     21427 WT1      6986     TIP3     OH2      OT      -0.834000       15.9994           0
     21428 WT1      6986     TIP3     H1       HT       0.417000        1.0080           0
     21429 WT1      6986     TIP3     H2       HT       0.417000        1.0080           0
     21430 WT1      6987     TIP3     OH2      OT      -0.834000       15.9994           0
     21431 WT1      6987     TIP3     H1       HT       0.417000        1.0080           0
     21432 WT1      6987     TIP3     H2       HT       0.417000        1.0080           0
     21433 WT1      6988     TIP3     OH2      OT      -0.834000       15.9994           0
     21434 WT1      6988     TIP3     H1       HT       0.417000        1.0080           0
     21435 WT1      6988     TIP3     H2       HT       0.417000        1.0080           0
     21436 WT1      6989     TIP3     OH2      OT      -0.834000       15.9994           0
     21437 WT1      6989     TIP3     H1       HT       0.417000        1.0080           0
     21438 WT1      6989     TIP3     H2       HT       0.417000        1.0080           0
     21439 WT1      6990     TIP3     OH2      OT      -0.834000       15.9994           0
     21440 WT1      6990     TIP3     H1       HT       0.417000        1.0080           0
     21441 WT1      6990     TIP3     H2       HT       0.417000        1.0080           0
     21442 WT1      6991     TIP3     OH2      OT      -0.834000       15.9994           0
     21443 WT1      6991     TIP3     H1       HT       0.417000        1.0080           0
     21444 WT1      6991     TIP3     H2       HT       0.417000        1.0080           0
     21445 WT1      6992     TIP3     OH2      OT      -0.834000       15.9994           0
     21446 WT1      6992     TIP3     H1       HT       0.417000        1.0080           0
     21447 WT1      6992     TIP3     H2       HT       0.417000        1.0080           0
     21448 WT1      6993     TIP3     OH2      OT      -0.834000       15.9994           0
     21449 WT1      6993     TIP3     H1       HT       0.417000        1.0080           0
     21450 WT1      6993     TIP3     H2       HT       0.417000        1.0080           0
     21451 WT1      6994     TIP3     OH2      OT      -0.834000       15.9994           0
     21452 WT1      6994     TIP3     H1       HT       0.417000        1.0080           0
     21453 WT1      6994     TIP3     H2       HT       0.417000        1.0080           0
     21454 WT1      6995     TIP3     OH2      OT      -0.834000       15.9994           0
     21455 WT1      6995     TIP3     H1       HT       0.417000        1.0080           0
     21456 WT1      6995     TIP3     H2       HT       0.417000        1.0080           0
     21457 WT1      6996     TIP3     OH2      OT      -0.834000       15.9994           0
     21458 WT1      6996     TIP3     H1       HT       0.417000        1.0080           0
     21459 WT1      6996     TIP3     H2       HT       0.417000        1.0080           0
     21460 WT1      6997     TIP3     OH2      OT      -0.834000       15.9994           0
     21461 WT1      6997     TIP3     H1       HT       0.417000        1.0080           0
     21462 WT1      6997     TIP3     H2       HT       0.417000        1.0080           0
     21463 WT1      6998     TIP3     OH2      OT      -0.834000       15.9994           0
     21464 WT1      6998     TIP3     H1       HT       0.417000        1.0080           0
     21465 WT1      6998     TIP3     H2       HT       0.417000        1.0080           0
     21466 WT1      6999     TIP3     OH2      OT      -0.834000       15.9994           0
     21467 WT1      6999     TIP3     H1       HT       0.417000        1.0080           0
     21468 WT1      6999     TIP3     H2       HT       0.417000        1.0080           0
     21469 WT1      7000     TIP3     OH2      OT      -0.834000       15.9994           0
     21470 WT1      7000     TIP3     H1       HT       0.417000        1.0080           0
     21471 WT1      7000     TIP3     H2       HT       0.417000        1.0080           0
     21472 WT1      7001     TIP3     OH2      OT      -0.834000       15.9994           0
     21473 WT1      7001     TIP3     H1       HT       0.417000        1.0080           0
     21474 WT1      7001     TIP3     H2       HT       0.417000        1.0080           0
     21475 WT1      7002     TIP3     OH2      OT      -0.834000       15.9994           0
     21476 WT1      7002     TIP3     H1       HT       0.417000        1.0080           0
     21477 WT1      7002     TIP3     H2       HT       0.417000        1.0080           0
     21478 WT1      7003     TIP3     OH2      OT      -0.834000       15.9994           0
     21479 WT1      7003     TIP3     H1       HT       0.417000        1.0080           0
     21480 WT1      7003     TIP3     H2       HT       0.417000        1.0080           0
     21481 WT1      7004     TIP3     OH2      OT      -0.834000       15.9994           0
     21482 WT1      7004     TIP3     H1       HT       0.417000        1.0080           0
     21483 WT1      7004     TIP3     H2       HT       0.417000        1.0080           0
     21484 WT1      7005     TIP3     OH2      OT      -0.834000       15.9994           0
     21485 WT1      7005     TIP3     H1       HT       0.417000        1.0080           0
     21486 WT1      7005     TIP3     H2       HT       0.417000        1.0080           0
     21487 WT1      7006     TIP3     OH2      OT      -0.834000       15.9994           0
     21488 WT1      7006     TIP3     H1       HT       0.417000        1.0080           0
     21489 WT1      7006     TIP3     H2       HT       0.417000        1.0080           0
     21490 WT1      7007     TIP3     OH2      OT      -0.834000       15.9994           0
     21491 WT1      7007     TIP3     H1       HT       0.417000        1.0080           0
     21492 WT1      7007     TIP3     H2       HT       0.417000        1.0080           0
     21493 WT1      7008     TIP3     OH2      OT      -0.834000       15.9994           0
     21494 WT1      7008     TIP3     H1       HT       0.417000        1.0080           0
     21495 WT1      7008     TIP3     H2       HT       0.417000        1.0080           0
     21496 WT1      7009     TIP3     OH2      OT      -0.834000       15.9994           0
     21497 WT1      7009     TIP3     H1       HT       0.417000        1.0080           0
     21498 WT1      7009     TIP3     H2       HT       0.417000        1.0080           0
     21499 WT1      7010     TIP3     OH2      OT      -0.834000       15.9994           0
     21500 WT1      7010     TIP3     H1       HT       0.417000        1.0080           0
     21501 WT1      7010     TIP3     H2       HT       0.417000        1.0080           0
     21502 WT1      7011     TIP3     OH2      OT      -0.834000       15.9994           0
     21503 WT1      7011     TIP3     H1       HT       0.417000        1.0080           0
     21504 WT1      7011     TIP3     H2       HT       0.417000        1.0080           0
     21505 WT1      7012     TIP3     OH2      OT      -0.834000       15.9994           0
     21506 WT1      7012     TIP3     H1       HT       0.417000        1.0080           0
     21507 WT1      7012     TIP3     H2       HT       0.417000        1.0080           0
     21508 WT1      7013     TIP3     OH2      OT      -0.834000       15.9994           0
     21509 WT1      7013     TIP3     H1       HT       0.417000        1.0080           0
     21510 WT1      7013     TIP3     H2       HT       0.417000        1.0080           0
     21511 WT1      7014     TIP3     OH2      OT      -0.834000       15.9994           0
     21512 WT1      7014     TIP3     H1       HT       0.417000        1.0080           0
     21513 WT1      7014     TIP3     H2       HT       0.417000        1.0080           0
     21514 WT1      7015     TIP3     OH2      OT      -0.834000       15.9994           0
     21515 WT1      7015     TIP3     H1       HT       0.417000        1.0080           0
     21516 WT1      7015     TIP3     H2       HT       0.417000        1.0080           0
     21517 WT1      7016     TIP3     OH2      OT      -0.834000       15.9994           0
     21518 WT1      7016     TIP3     H1       HT       0.417000        1.0080           0
     21519 WT1      7016     TIP3     H2       HT       0.417000        1.0080           0
     21520 WT1      7017     TIP3     OH2      OT      -0.834000       15.9994           0
     21521 WT1      7017     TIP3     H1       HT       0.417000        1.0080           0
     21522 WT1      7017     TIP3     H2       HT       0.417000        1.0080           0
     21523 WT1      7018     TIP3     OH2      OT      -0.834000       15.9994           0
     21524 WT1      7018     TIP3     H1       HT       0.417000        1.0080           0
     21525 WT1      7018     TIP3     H2       HT       0.417000        1.0080           0
     21526 WT1      7019     TIP3     OH2      OT      -0.834000       15.9994           0
     21527 WT1      7019     TIP3     H1       HT       0.417000        1.0080           0
     21528 WT1      7019     TIP3     H2       HT       0.417000        1.0080           0
     21529 WT1      7020     TIP3     OH2      OT      -0.834000       15.9994           0
     21530 WT1      7020     TIP3     H1       HT       0.417000        1.0080           0
     21531 WT1      7020     TIP3     H2       HT       0.417000        1.0080           0
     21532 WT1      7021     TIP3     OH2      OT      -0.834000       15.9994           0
     21533 WT1      7021     TIP3     H1       HT       0.417000        1.0080           0
     21534 WT1      7021     TIP3     H2       HT       0.417000        1.0080           0
     21535 WT1      7022     TIP3     OH2      OT      -0.834000       15.9994           0
     21536 WT1      7022     TIP3     H1       HT       0.417000        1.0080           0
     21537 WT1      7022     TIP3     H2       HT       0.417000        1.0080           0
     21538 WT1      7023     TIP3     OH2      OT      -0.834000       15.9994           0
     21539 WT1      7023     TIP3     H1       HT       0.417000        1.0080           0
     21540 WT1      7023     TIP3     H2       HT       0.417000        1.0080           0
     21541 WT1      7024     TIP3     OH2      OT      -0.834000       15.9994           0
     21542 WT1      7024     TIP3     H1       HT       0.417000        1.0080           0
     21543 WT1      7024     TIP3     H2       HT       0.417000        1.0080           0
     21544 WT1      7025     TIP3     OH2      OT      -0.834000       15.9994           0
     21545 WT1      7025     TIP3     H1       HT       0.417000        1.0080           0
     21546 WT1      7025     TIP3     H2       HT       0.417000        1.0080           0
     21547 WT1      7026     TIP3     OH2      OT      -0.834000       15.9994           0
     21548 WT1      7026     TIP3     H1       HT       0.417000        1.0080           0
     21549 WT1      7026     TIP3     H2       HT       0.417000        1.0080           0
     21550 WT1      7027     TIP3     OH2      OT      -0.834000       15.9994           0
     21551 WT1      7027     TIP3     H1       HT       0.417000        1.0080           0
     21552 WT1      7027     TIP3     H2       HT       0.417000        1.0080           0
     21553 WT1      7028     TIP3     OH2      OT      -0.834000       15.9994           0
     21554 WT1      7028     TIP3     H1       HT       0.417000        1.0080           0
     21555 WT1      7028     TIP3     H2       HT       0.417000        1.0080           0
     21556 WT1      7029     TIP3     OH2      OT      -0.834000       15.9994           0
     21557 WT1      7029     TIP3     H1       HT       0.417000        1.0080           0
     21558 WT1      7029     TIP3     H2       HT       0.417000        1.0080           0
     21559 WT1      7030     TIP3     OH2      OT      -0.834000       15.9994           0
     21560 WT1      7030     TIP3     H1       HT       0.417000        1.0080           0
     21561 WT1      7030     TIP3     H2       HT       0.417000        1.0080           0
     21562 WT1      7031     TIP3     OH2      OT      -0.834000       15.9994           0
     21563 WT1      7031     TIP3     H1       HT       0.417000        1.0080           0
     21564 WT1      7031     TIP3     H2       HT       0.417000        1.0080           0
     21565 WT1      7032     TIP3     OH2      OT      -0.834000       15.9994           0
     21566 WT1      7032     TIP3     H1       HT       0.417000        1.0080           0
     21567 WT1      7032     TIP3     H2       HT       0.417000        1.0080           0
     21568 WT1      7033     TIP3     OH2      OT      -0.834000       15.9994           0
     21569 WT1      7033     TIP3     H1       HT       0.417000        1.0080           0
     21570 WT1      7033     TIP3     H2       HT       0.417000        1.0080           0
     21571 WT1      7034     TIP3     OH2      OT      -0.834000       15.9994           0
     21572 WT1      7034     TIP3     H1       HT       0.417000        1.0080           0
     21573 WT1      7034     TIP3     H2       HT       0.417000        1.0080           0
     21574 WT1      7036     TIP3     OH2      OT      -0.834000       15.9994           0
     21575 WT1      7036     TIP3     H1       HT       0.417000        1.0080           0
     21576 WT1      7036     TIP3     H2       HT       0.417000        1.0080           0
     21577 WT1      7037     TIP3     OH2      OT      -0.834000       15.9994           0
     21578 WT1      7037     TIP3     H1       HT       0.417000        1.0080           0
     21579 WT1      7037     TIP3     H2       HT       0.417000        1.0080           0
     21580 WT1      7038     TIP3     OH2      OT      -0.834000       15.9994           0
     21581 WT1      7038     TIP3     H1       HT       0.417000        1.0080           0
     21582 WT1      7038     TIP3     H2       HT       0.417000        1.0080           0
     21583 WT1      7039     TIP3     OH2      OT      -0.834000       15.9994           0
     21584 WT1      7039     TIP3     H1       HT       0.417000        1.0080           0
     21585 WT1      7039     TIP3     H2       HT       0.417000        1.0080           0
     21586 WT1      7040     TIP3     OH2      OT      -0.834000       15.9994           0
     21587 WT1      7040     TIP3     H1       HT       0.417000        1.0080           0
     21588 WT1      7040     TIP3     H2       HT       0.417000        1.0080           0
     21589 WT1      7041     TIP3     OH2      OT      -0.834000       15.9994           0
     21590 WT1      7041     TIP3     H1       HT       0.417000        1.0080           0
     21591 WT1      7041     TIP3     H2       HT       0.417000        1.0080           0
     21592 WT1      7042     TIP3     OH2      OT      -0.834000       15.9994           0
     21593 WT1      7042     TIP3     H1       HT       0.417000        1.0080           0
     21594 WT1      7042     TIP3     H2       HT       0.417000        1.0080           0
     21595 WT1      7043     TIP3     OH2      OT      -0.834000       15.9994           0
     21596 WT1      7043     TIP3     H1       HT       0.417000        1.0080           0
     21597 WT1      7043     TIP3     H2       HT       0.417000        1.0080           0
     21598 WT1      7044     TIP3     OH2      OT      -0.834000       15.9994           0
     21599 WT1      7044     TIP3     H1       HT       0.417000        1.0080           0
     21600 WT1      7044     TIP3     H2       HT       0.417000        1.0080           0
     21601 WT1      7045     TIP3     OH2      OT      -0.834000       15.9994           0
     21602 WT1      7045     TIP3     H1       HT       0.417000        1.0080           0
     21603 WT1      7045     TIP3     H2       HT       0.417000        1.0080           0
     21604 WT1      7046     TIP3     OH2      OT      -0.834000       15.9994           0
     21605 WT1      7046     TIP3     H1       HT       0.417000        1.0080           0
     21606 WT1      7046     TIP3     H2       HT       0.417000        1.0080           0
     21607 WT1      7047     TIP3     OH2      OT      -0.834000       15.9994           0
     21608 WT1      7047     TIP3     H1       HT       0.417000        1.0080           0
     21609 WT1      7047     TIP3     H2       HT       0.417000        1.0080           0
     21610 WT1      7048     TIP3     OH2      OT      -0.834000       15.9994           0
     21611 WT1      7048     TIP3     H1       HT       0.417000        1.0080           0
     21612 WT1      7048     TIP3     H2       HT       0.417000        1.0080           0
     21613 WT1      7049     TIP3     OH2      OT      -0.834000       15.9994           0
     21614 WT1      7049     TIP3     H1       HT       0.417000        1.0080           0
     21615 WT1      7049     TIP3     H2       HT       0.417000        1.0080           0
     21616 WT1      7050     TIP3     OH2      OT      -0.834000       15.9994           0
     21617 WT1      7050     TIP3     H1       HT       0.417000        1.0080           0
     21618 WT1      7050     TIP3     H2       HT       0.417000        1.0080           0
     21619 WT1      7051     TIP3     OH2      OT      -0.834000       15.9994           0
     21620 WT1      7051     TIP3     H1       HT       0.417000        1.0080           0
     21621 WT1      7051     TIP3     H2       HT       0.417000        1.0080           0
     21622 WT1      7052     TIP3     OH2      OT      -0.834000       15.9994           0
     21623 WT1      7052     TIP3     H1       HT       0.417000        1.0080           0
     21624 WT1      7052     TIP3     H2       HT       0.417000        1.0080           0
     21625 WT1      7053     TIP3     OH2      OT      -0.834000       15.9994           0
     21626 WT1      7053     TIP3     H1       HT       0.417000        1.0080           0
     21627 WT1      7053     TIP3     H2       HT       0.417000        1.0080           0
     21628 WT1      7054     TIP3     OH2      OT      -0.834000       15.9994           0
     21629 WT1      7054     TIP3     H1       HT       0.417000        1.0080           0
     21630 WT1      7054     TIP3     H2       HT       0.417000        1.0080           0
     21631 WT1      7055     TIP3     OH2      OT      -0.834000       15.9994           0
     21632 WT1      7055     TIP3     H1       HT       0.417000        1.0080           0
     21633 WT1      7055     TIP3     H2       HT       0.417000        1.0080           0
     21634 WT1      7056     TIP3     OH2      OT      -0.834000       15.9994           0
     21635 WT1      7056     TIP3     H1       HT       0.417000        1.0080           0
     21636 WT1      7056     TIP3     H2       HT       0.417000        1.0080           0
     21637 WT1      7057     TIP3     OH2      OT      -0.834000       15.9994           0
     21638 WT1      7057     TIP3     H1       HT       0.417000        1.0080           0
     21639 WT1      7057     TIP3     H2       HT       0.417000        1.0080           0
     21640 WT1      7058     TIP3     OH2      OT      -0.834000       15.9994           0
     21641 WT1      7058     TIP3     H1       HT       0.417000        1.0080           0
     21642 WT1      7058     TIP3     H2       HT       0.417000        1.0080           0
     21643 WT1      7059     TIP3     OH2      OT      -0.834000       15.9994           0
     21644 WT1      7059     TIP3     H1       HT       0.417000        1.0080           0
     21645 WT1      7059     TIP3     H2       HT       0.417000        1.0080           0
     21646 WT1      7060     TIP3     OH2      OT      -0.834000       15.9994           0
     21647 WT1      7060     TIP3     H1       HT       0.417000        1.0080           0
     21648 WT1      7060     TIP3     H2       HT       0.417000        1.0080           0
     21649 WT1      7061     TIP3     OH2      OT      -0.834000       15.9994           0
     21650 WT1      7061     TIP3     H1       HT       0.417000        1.0080           0
     21651 WT1      7061     TIP3     H2       HT       0.417000        1.0080           0
     21652 WT1      7062     TIP3     OH2      OT      -0.834000       15.9994           0
     21653 WT1      7062     TIP3     H1       HT       0.417000        1.0080           0
     21654 WT1      7062     TIP3     H2       HT       0.417000        1.0080           0
     21655 WT1      7063     TIP3     OH2      OT      -0.834000       15.9994           0
     21656 WT1      7063     TIP3     H1       HT       0.417000        1.0080           0
     21657 WT1      7063     TIP3     H2       HT       0.417000        1.0080           0
     21658 WT1      7064     TIP3     OH2      OT      -0.834000       15.9994           0
     21659 WT1      7064     TIP3     H1       HT       0.417000        1.0080           0
     21660 WT1      7064     TIP3     H2       HT       0.417000        1.0080           0
     21661 WT1      7065     TIP3     OH2      OT      -0.834000       15.9994           0
     21662 WT1      7065     TIP3     H1       HT       0.417000        1.0080           0
     21663 WT1      7065     TIP3     H2       HT       0.417000        1.0080           0
     21664 WT1      7066     TIP3     OH2      OT      -0.834000       15.9994           0
     21665 WT1      7066     TIP3     H1       HT       0.417000        1.0080           0
     21666 WT1      7066     TIP3     H2       HT       0.417000        1.0080           0
     21667 WT1      7067     TIP3     OH2      OT      -0.834000       15.9994           0
     21668 WT1      7067     TIP3     H1       HT       0.417000        1.0080           0
     21669 WT1      7067     TIP3     H2       HT       0.417000        1.0080           0
     21670 WT1      7068     TIP3     OH2      OT      -0.834000       15.9994           0
     21671 WT1      7068     TIP3     H1       HT       0.417000        1.0080           0
     21672 WT1      7068     TIP3     H2       HT       0.417000        1.0080           0
     21673 WT1      7069     TIP3     OH2      OT      -0.834000       15.9994           0
     21674 WT1      7069     TIP3     H1       HT       0.417000        1.0080           0
     21675 WT1      7069     TIP3     H2       HT       0.417000        1.0080           0
     21676 WT1      7070     TIP3     OH2      OT      -0.834000       15.9994           0
     21677 WT1      7070     TIP3     H1       HT       0.417000        1.0080           0
     21678 WT1      7070     TIP3     H2       HT       0.417000        1.0080           0
     21679 WT1      7071     TIP3     OH2      OT      -0.834000       15.9994           0
     21680 WT1      7071     TIP3     H1       HT       0.417000        1.0080           0
     21681 WT1      7071     TIP3     H2       HT       0.417000        1.0080           0
     21682 WT1      7072     TIP3     OH2      OT      -0.834000       15.9994           0
     21683 WT1      7072     TIP3     H1       HT       0.417000        1.0080           0
     21684 WT1      7072     TIP3     H2       HT       0.417000        1.0080           0
     21685 WT1      7073     TIP3     OH2      OT      -0.834000       15.9994           0
     21686 WT1      7073     TIP3     H1       HT       0.417000        1.0080           0
     21687 WT1      7073     TIP3     H2       HT       0.417000        1.0080           0
     21688 WT1      7074     TIP3     OH2      OT      -0.834000       15.9994           0
     21689 WT1      7074     TIP3     H1       HT       0.417000        1.0080           0
     21690 WT1      7074     TIP3     H2       HT       0.417000        1.0080           0
     21691 WT1      7075     TIP3     OH2      OT      -0.834000       15.9994           0
     21692 WT1      7075     TIP3     H1       HT       0.417000        1.0080           0
     21693 WT1      7075     TIP3     H2       HT       0.417000        1.0080           0
     21694 WT1      7076     TIP3     OH2      OT      -0.834000       15.9994           0
     21695 WT1      7076     TIP3     H1       HT       0.417000        1.0080           0
     21696 WT1      7076     TIP3     H2       HT       0.417000        1.0080           0
     21697 WT1      7077     TIP3     OH2      OT      -0.834000       15.9994           0
     21698 WT1      7077     TIP3     H1       HT       0.417000        1.0080           0
     21699 WT1      7077     TIP3     H2       HT       0.417000        1.0080           0
     21700 WT1      7078     TIP3     OH2      OT      -0.834000       15.9994           0
     21701 WT1      7078     TIP3     H1       HT       0.417000        1.0080           0
     21702 WT1      7078     TIP3     H2       HT       0.417000        1.0080           0
     21703 WT1      7079     TIP3     OH2      OT      -0.834000       15.9994           0
     21704 WT1      7079     TIP3     H1       HT       0.417000        1.0080           0
     21705 WT1      7079     TIP3     H2       HT       0.417000        1.0080           0
     21706 WT1      7080     TIP3     OH2      OT      -0.834000       15.9994           0
     21707 WT1      7080     TIP3     H1       HT       0.417000        1.0080           0
     21708 WT1      7080     TIP3     H2       HT       0.417000        1.0080           0
     21709 WT1      7081     TIP3     OH2      OT      -0.834000       15.9994           0
     21710 WT1      7081     TIP3     H1       HT       0.417000        1.0080           0
     21711 WT1      7081     TIP3     H2       HT       0.417000        1.0080           0
     21712 WT1      7082     TIP3     OH2      OT      -0.834000       15.9994           0
     21713 WT1      7082     TIP3     H1       HT       0.417000        1.0080           0
     21714 WT1      7082     TIP3     H2       HT       0.417000        1.0080           0
     21715 WT1      7083     TIP3     OH2      OT      -0.834000       15.9994           0
     21716 WT1      7083     TIP3     H1       HT       0.417000        1.0080           0
     21717 WT1      7083     TIP3     H2       HT       0.417000        1.0080           0
     21718 WT1      7084     TIP3     OH2      OT      -0.834000       15.9994           0
     21719 WT1      7084     TIP3     H1       HT       0.417000        1.0080           0
     21720 WT1      7084     TIP3     H2       HT       0.417000        1.0080           0
     21721 WT1      7085     TIP3     OH2      OT      -0.834000       15.9994           0
     21722 WT1      7085     TIP3     H1       HT       0.417000        1.0080           0
     21723 WT1      7085     TIP3     H2       HT       0.417000        1.0080           0
     21724 WT1      7086     TIP3     OH2      OT      -0.834000       15.9994           0
     21725 WT1      7086     TIP3     H1       HT       0.417000        1.0080           0
     21726 WT1      7086     TIP3     H2       HT       0.417000        1.0080           0
     21727 WT1      7087     TIP3     OH2      OT      -0.834000       15.9994           0
     21728 WT1      7087     TIP3     H1       HT       0.417000        1.0080           0
     21729 WT1      7087     TIP3     H2       HT       0.417000        1.0080           0
     21730 WT1      7088     TIP3     OH2      OT      -0.834000       15.9994           0
     21731 WT1      7088     TIP3     H1       HT       0.417000        1.0080           0
     21732 WT1      7088     TIP3     H2       HT       0.417000        1.0080           0
     21733 WT1      7089     TIP3     OH2      OT      -0.834000       15.9994           0
     21734 WT1      7089     TIP3     H1       HT       0.417000        1.0080           0
     21735 WT1      7089     TIP3     H2       HT       0.417000        1.0080           0
     21736 WT1      7090     TIP3     OH2      OT      -0.834000       15.9994           0
     21737 WT1      7090     TIP3     H1       HT       0.417000        1.0080           0
     21738 WT1      7090     TIP3     H2       HT       0.417000        1.0080           0
     21739 WT1      7091     TIP3     OH2      OT      -0.834000       15.9994           0
     21740 WT1      7091     TIP3     H1       HT       0.417000        1.0080           0
     21741 WT1      7091     TIP3     H2       HT       0.417000        1.0080           0
     21742 WT1      7092     TIP3     OH2      OT      -0.834000       15.9994           0
     21743 WT1      7092     TIP3     H1       HT       0.417000        1.0080           0
     21744 WT1      7092     TIP3     H2       HT       0.417000        1.0080           0
     21745 WT1      7093     TIP3     OH2      OT      -0.834000       15.9994           0
     21746 WT1      7093     TIP3     H1       HT       0.417000        1.0080           0
     21747 WT1      7093     TIP3     H2       HT       0.417000        1.0080           0
     21748 WT1      7094     TIP3     OH2      OT      -0.834000       15.9994           0
     21749 WT1      7094     TIP3     H1       HT       0.417000        1.0080           0
     21750 WT1      7094     TIP3     H2       HT       0.417000        1.0080           0
     21751 WT1      7095     TIP3     OH2      OT      -0.834000       15.9994           0
     21752 WT1      7095     TIP3     H1       HT       0.417000        1.0080           0
     21753 WT1      7095     TIP3     H2       HT       0.417000        1.0080           0
     21754 WT1      7096     TIP3     OH2      OT      -0.834000       15.9994           0
     21755 WT1      7096     TIP3     H1       HT       0.417000        1.0080           0
     21756 WT1      7096     TIP3     H2       HT       0.417000        1.0080           0
     21757 WT1      7097     TIP3     OH2      OT      -0.834000       15.9994           0
     21758 WT1      7097     TIP3     H1       HT       0.417000        1.0080           0
     21759 WT1      7097     TIP3     H2       HT       0.417000        1.0080           0
     21760 WT1      7098     TIP3     OH2      OT      -0.834000       15.9994           0
     21761 WT1      7098     TIP3     H1       HT       0.417000        1.0080           0
     21762 WT1      7098     TIP3     H2       HT       0.417000        1.0080           0
     21763 WT1      7099     TIP3     OH2      OT      -0.834000       15.9994           0
     21764 WT1      7099     TIP3     H1       HT       0.417000        1.0080           0
     21765 WT1      7099     TIP3     H2       HT       0.417000        1.0080           0
     21766 WT1      7101     TIP3     OH2      OT      -0.834000       15.9994           0
     21767 WT1      7101     TIP3     H1       HT       0.417000        1.0080           0
     21768 WT1      7101     TIP3     H2       HT       0.417000        1.0080           0
     21769 WT1      7102     TIP3     OH2      OT      -0.834000       15.9994           0
     21770 WT1      7102     TIP3     H1       HT       0.417000        1.0080           0
     21771 WT1      7102     TIP3     H2       HT       0.417000        1.0080           0
     21772 WT1      7103     TIP3     OH2      OT      -0.834000       15.9994           0
     21773 WT1      7103     TIP3     H1       HT       0.417000        1.0080           0
     21774 WT1      7103     TIP3     H2       HT       0.417000        1.0080           0
     21775 WT1      7104     TIP3     OH2      OT      -0.834000       15.9994           0
     21776 WT1      7104     TIP3     H1       HT       0.417000        1.0080           0
     21777 WT1      7104     TIP3     H2       HT       0.417000        1.0080           0
     21778 WT1      7105     TIP3     OH2      OT      -0.834000       15.9994           0
     21779 WT1      7105     TIP3     H1       HT       0.417000        1.0080           0
     21780 WT1      7105     TIP3     H2       HT       0.417000        1.0080           0
     21781 WT1      7106     TIP3     OH2      OT      -0.834000       15.9994           0
     21782 WT1      7106     TIP3     H1       HT       0.417000        1.0080           0
     21783 WT1      7106     TIP3     H2       HT       0.417000        1.0080           0
     21784 WT1      7107     TIP3     OH2      OT      -0.834000       15.9994           0
     21785 WT1      7107     TIP3     H1       HT       0.417000        1.0080           0
     21786 WT1      7107     TIP3     H2       HT       0.417000        1.0080           0
     21787 WT1      7108     TIP3     OH2      OT      -0.834000       15.9994           0
     21788 WT1      7108     TIP3     H1       HT       0.417000        1.0080           0
     21789 WT1      7108     TIP3     H2       HT       0.417000        1.0080           0
     21790 WT1      7109     TIP3     OH2      OT      -0.834000       15.9994           0
     21791 WT1      7109     TIP3     H1       HT       0.417000        1.0080           0
     21792 WT1      7109     TIP3     H2       HT       0.417000        1.0080           0
     21793 WT1      7110     TIP3     OH2      OT      -0.834000       15.9994           0
     21794 WT1      7110     TIP3     H1       HT       0.417000        1.0080           0
     21795 WT1      7110     TIP3     H2       HT       0.417000        1.0080           0
     21796 WT1      7111     TIP3     OH2      OT      -0.834000       15.9994           0
     21797 WT1      7111     TIP3     H1       HT       0.417000        1.0080           0
     21798 WT1      7111     TIP3     H2       HT       0.417000        1.0080           0
     21799 WT1      7113     TIP3     OH2      OT      -0.834000       15.9994           0
     21800 WT1      7113     TIP3     H1       HT       0.417000        1.0080           0
     21801 WT1      7113     TIP3     H2       HT       0.417000        1.0080           0
     21802 WT1      7114     TIP3     OH2      OT      -0.834000       15.9994           0
     21803 WT1      7114     TIP3     H1       HT       0.417000        1.0080           0
     21804 WT1      7114     TIP3     H2       HT       0.417000        1.0080           0
     21805 WT1      7115     TIP3     OH2      OT      -0.834000       15.9994           0
     21806 WT1      7115     TIP3     H1       HT       0.417000        1.0080           0
     21807 WT1      7115     TIP3     H2       HT       0.417000        1.0080           0
     21808 WT1      7116     TIP3     OH2      OT      -0.834000       15.9994           0
     21809 WT1      7116     TIP3     H1       HT       0.417000        1.0080           0
     21810 WT1      7116     TIP3     H2       HT       0.417000        1.0080           0
     21811 WT1      7117     TIP3     OH2      OT      -0.834000       15.9994           0
     21812 WT1      7117     TIP3     H1       HT       0.417000        1.0080           0
     21813 WT1      7117     TIP3     H2       HT       0.417000        1.0080           0
     21814 WT1      7118     TIP3     OH2      OT      -0.834000       15.9994           0
     21815 WT1      7118     TIP3     H1       HT       0.417000        1.0080           0
     21816 WT1      7118     TIP3     H2       HT       0.417000        1.0080           0
     21817 WT1      7119     TIP3     OH2      OT      -0.834000       15.9994           0
     21818 WT1      7119     TIP3     H1       HT       0.417000        1.0080           0
     21819 WT1      7119     TIP3     H2       HT       0.417000        1.0080           0
     21820 WT1      7120     TIP3     OH2      OT      -0.834000       15.9994           0
     21821 WT1      7120     TIP3     H1       HT       0.417000        1.0080           0
     21822 WT1      7120     TIP3     H2       HT       0.417000        1.0080           0
     21823 WT1      7121     TIP3     OH2      OT      -0.834000       15.9994           0
     21824 WT1      7121     TIP3     H1       HT       0.417000        1.0080           0
     21825 WT1      7121     TIP3     H2       HT       0.417000        1.0080           0
     21826 WT1      7122     TIP3     OH2      OT      -0.834000       15.9994           0
     21827 WT1      7122     TIP3     H1       HT       0.417000        1.0080           0
     21828 WT1      7122     TIP3     H2       HT       0.417000        1.0080           0
     21829 WT1      7123     TIP3     OH2      OT      -0.834000       15.9994           0
     21830 WT1      7123     TIP3     H1       HT       0.417000        1.0080           0
     21831 WT1      7123     TIP3     H2       HT       0.417000        1.0080           0
     21832 WT1      7124     TIP3     OH2      OT      -0.834000       15.9994           0
     21833 WT1      7124     TIP3     H1       HT       0.417000        1.0080           0
     21834 WT1      7124     TIP3     H2       HT       0.417000        1.0080           0
     21835 WT1      7125     TIP3     OH2      OT      -0.834000       15.9994           0
     21836 WT1      7125     TIP3     H1       HT       0.417000        1.0080           0
     21837 WT1      7125     TIP3     H2       HT       0.417000        1.0080           0
     21838 WT1      7126     TIP3     OH2      OT      -0.834000       15.9994           0
     21839 WT1      7126     TIP3     H1       HT       0.417000        1.0080           0
     21840 WT1      7126     TIP3     H2       HT       0.417000        1.0080           0
     21841 WT1      7127     TIP3     OH2      OT      -0.834000       15.9994           0
     21842 WT1      7127     TIP3     H1       HT       0.417000        1.0080           0
     21843 WT1      7127     TIP3     H2       HT       0.417000        1.0080           0
     21844 WT1      7128     TIP3     OH2      OT      -0.834000       15.9994           0
     21845 WT1      7128     TIP3     H1       HT       0.417000        1.0080           0
     21846 WT1      7128     TIP3     H2       HT       0.417000        1.0080           0
     21847 WT1      7129     TIP3     OH2      OT      -0.834000       15.9994           0
     21848 WT1      7129     TIP3     H1       HT       0.417000        1.0080           0
     21849 WT1      7129     TIP3     H2       HT       0.417000        1.0080           0
     21850 WT1      7130     TIP3     OH2      OT      -0.834000       15.9994           0
     21851 WT1      7130     TIP3     H1       HT       0.417000        1.0080           0
     21852 WT1      7130     TIP3     H2       HT       0.417000        1.0080           0
     21853 WT1      7131     TIP3     OH2      OT      -0.834000       15.9994           0
     21854 WT1      7131     TIP3     H1       HT       0.417000        1.0080           0
     21855 WT1      7131     TIP3     H2       HT       0.417000        1.0080           0
     21856 WT1      7132     TIP3     OH2      OT      -0.834000       15.9994           0
     21857 WT1      7132     TIP3     H1       HT       0.417000        1.0080           0
     21858 WT1      7132     TIP3     H2       HT       0.417000        1.0080           0
     21859 WT1      7133     TIP3     OH2      OT      -0.834000       15.9994           0
     21860 WT1      7133     TIP3     H1       HT       0.417000        1.0080           0
     21861 WT1      7133     TIP3     H2       HT       0.417000        1.0080           0
     21862 WT1      7134     TIP3     OH2      OT      -0.834000       15.9994           0
     21863 WT1      7134     TIP3     H1       HT       0.417000        1.0080           0
     21864 WT1      7134     TIP3     H2       HT       0.417000        1.0080           0
     21865 WT1      7135     TIP3     OH2      OT      -0.834000       15.9994           0
     21866 WT1      7135     TIP3     H1       HT       0.417000        1.0080           0
     21867 WT1      7135     TIP3     H2       HT       0.417000        1.0080           0
     21868 WT1      7136     TIP3     OH2      OT      -0.834000       15.9994           0
     21869 WT1      7136     TIP3     H1       HT       0.417000        1.0080           0
     21870 WT1      7136     TIP3     H2       HT       0.417000        1.0080           0
     21871 WT1      7137     TIP3     OH2      OT      -0.834000       15.9994           0
     21872 WT1      7137     TIP3     H1       HT       0.417000        1.0080           0
     21873 WT1      7137     TIP3     H2       HT       0.417000        1.0080           0
     21874 WT1      7138     TIP3     OH2      OT      -0.834000       15.9994           0
     21875 WT1      7138     TIP3     H1       HT       0.417000        1.0080           0
     21876 WT1      7138     TIP3     H2       HT       0.417000        1.0080           0
     21877 WT1      7139     TIP3     OH2      OT      -0.834000       15.9994           0
     21878 WT1      7139     TIP3     H1       HT       0.417000        1.0080           0
     21879 WT1      7139     TIP3     H2       HT       0.417000        1.0080           0
     21880 WT1      7140     TIP3     OH2      OT      -0.834000       15.9994           0
     21881 WT1      7140     TIP3     H1       HT       0.417000        1.0080           0
     21882 WT1      7140     TIP3     H2       HT       0.417000        1.0080           0
     21883 WT1      7141     TIP3     OH2      OT      -0.834000       15.9994           0
     21884 WT1      7141     TIP3     H1       HT       0.417000        1.0080           0
     21885 WT1      7141     TIP3     H2       HT       0.417000        1.0080           0
     21886 WT1      7142     TIP3     OH2      OT      -0.834000       15.9994           0
     21887 WT1      7142     TIP3     H1       HT       0.417000        1.0080           0
     21888 WT1      7142     TIP3     H2       HT       0.417000        1.0080           0
     21889 WT1      7143     TIP3     OH2      OT      -0.834000       15.9994           0
     21890 WT1      7143     TIP3     H1       HT       0.417000        1.0080           0
     21891 WT1      7143     TIP3     H2       HT       0.417000        1.0080           0
     21892 WT1      7144     TIP3     OH2      OT      -0.834000       15.9994           0
     21893 WT1      7144     TIP3     H1       HT       0.417000        1.0080           0
     21894 WT1      7144     TIP3     H2       HT       0.417000        1.0080           0
     21895 WT1      7145     TIP3     OH2      OT      -0.834000       15.9994           0
     21896 WT1      7145     TIP3     H1       HT       0.417000        1.0080           0
     21897 WT1      7145     TIP3     H2       HT       0.417000        1.0080           0
     21898 WT1      7146     TIP3     OH2      OT      -0.834000       15.9994           0
     21899 WT1      7146     TIP3     H1       HT       0.417000        1.0080           0
     21900 WT1      7146     TIP3     H2       HT       0.417000        1.0080           0
     21901 WT1      7147     TIP3     OH2      OT      -0.834000       15.9994           0
     21902 WT1      7147     TIP3     H1       HT       0.417000        1.0080           0
     21903 WT1      7147     TIP3     H2       HT       0.417000        1.0080           0
     21904 WT1      7148     TIP3     OH2      OT      -0.834000       15.9994           0
     21905 WT1      7148     TIP3     H1       HT       0.417000        1.0080           0
     21906 WT1      7148     TIP3     H2       HT       0.417000        1.0080           0
     21907 WT1      7149     TIP3     OH2      OT      -0.834000       15.9994           0
     21908 WT1      7149     TIP3     H1       HT       0.417000        1.0080           0
     21909 WT1      7149     TIP3     H2       HT       0.417000        1.0080           0
     21910 WT1      7150     TIP3     OH2      OT      -0.834000       15.9994           0
     21911 WT1      7150     TIP3     H1       HT       0.417000        1.0080           0
     21912 WT1      7150     TIP3     H2       HT       0.417000        1.0080           0
     21913 WT1      7151     TIP3     OH2      OT      -0.834000       15.9994           0
     21914 WT1      7151     TIP3     H1       HT       0.417000        1.0080           0
     21915 WT1      7151     TIP3     H2       HT       0.417000        1.0080           0
     21916 WT1      7152     TIP3     OH2      OT      -0.834000       15.9994           0
     21917 WT1      7152     TIP3     H1       HT       0.417000        1.0080           0
     21918 WT1      7152     TIP3     H2       HT       0.417000        1.0080           0
     21919 WT1      7153     TIP3     OH2      OT      -0.834000       15.9994           0
     21920 WT1      7153     TIP3     H1       HT       0.417000        1.0080           0
     21921 WT1      7153     TIP3     H2       HT       0.417000        1.0080           0
     21922 WT1      7154     TIP3     OH2      OT      -0.834000       15.9994           0
     21923 WT1      7154     TIP3     H1       HT       0.417000        1.0080           0
     21924 WT1      7154     TIP3     H2       HT       0.417000        1.0080           0
     21925 WT1      7155     TIP3     OH2      OT      -0.834000       15.9994           0
     21926 WT1      7155     TIP3     H1       HT       0.417000        1.0080           0
     21927 WT1      7155     TIP3     H2       HT       0.417000        1.0080           0
     21928 WT1      7156     TIP3     OH2      OT      -0.834000       15.9994           0
     21929 WT1      7156     TIP3     H1       HT       0.417000        1.0080           0
     21930 WT1      7156     TIP3     H2       HT       0.417000        1.0080           0
     21931 WT1      7157     TIP3     OH2      OT      -0.834000       15.9994           0
     21932 WT1      7157     TIP3     H1       HT       0.417000        1.0080           0
     21933 WT1      7157     TIP3     H2       HT       0.417000        1.0080           0
     21934 WT1      7158     TIP3     OH2      OT      -0.834000       15.9994           0
     21935 WT1      7158     TIP3     H1       HT       0.417000        1.0080           0
     21936 WT1      7158     TIP3     H2       HT       0.417000        1.0080           0
     21937 WT1      7159     TIP3     OH2      OT      -0.834000       15.9994           0
     21938 WT1      7159     TIP3     H1       HT       0.417000        1.0080           0
     21939 WT1      7159     TIP3     H2       HT       0.417000        1.0080           0
     21940 WT1      7160     TIP3     OH2      OT      -0.834000       15.9994           0
     21941 WT1      7160     TIP3     H1       HT       0.417000        1.0080           0
     21942 WT1      7160     TIP3     H2       HT       0.417000        1.0080           0
     21943 WT1      7161     TIP3     OH2      OT      -0.834000       15.9994           0
     21944 WT1      7161     TIP3     H1       HT       0.417000        1.0080           0
     21945 WT1      7161     TIP3     H2       HT       0.417000        1.0080           0
     21946 WT1      7162     TIP3     OH2      OT      -0.834000       15.9994           0
     21947 WT1      7162     TIP3     H1       HT       0.417000        1.0080           0
     21948 WT1      7162     TIP3     H2       HT       0.417000        1.0080           0
     21949 WT1      7163     TIP3     OH2      OT      -0.834000       15.9994           0
     21950 WT1      7163     TIP3     H1       HT       0.417000        1.0080           0
     21951 WT1      7163     TIP3     H2       HT       0.417000        1.0080           0
     21952 WT1      7164     TIP3     OH2      OT      -0.834000       15.9994           0
     21953 WT1      7164     TIP3     H1       HT       0.417000        1.0080           0
     21954 WT1      7164     TIP3     H2       HT       0.417000        1.0080           0
     21955 WT1      7165     TIP3     OH2      OT      -0.834000       15.9994           0
     21956 WT1      7165     TIP3     H1       HT       0.417000        1.0080           0
     21957 WT1      7165     TIP3     H2       HT       0.417000        1.0080           0
     21958 WT1      7166     TIP3     OH2      OT      -0.834000       15.9994           0
     21959 WT1      7166     TIP3     H1       HT       0.417000        1.0080           0
     21960 WT1      7166     TIP3     H2       HT       0.417000        1.0080           0
     21961 WT1      7167     TIP3     OH2      OT      -0.834000       15.9994           0
     21962 WT1      7167     TIP3     H1       HT       0.417000        1.0080           0
     21963 WT1      7167     TIP3     H2       HT       0.417000        1.0080           0
     21964 WT1      7168     TIP3     OH2      OT      -0.834000       15.9994           0
     21965 WT1      7168     TIP3     H1       HT       0.417000        1.0080           0
     21966 WT1      7168     TIP3     H2       HT       0.417000        1.0080           0
     21967 WT1      7169     TIP3     OH2      OT      -0.834000       15.9994           0
     21968 WT1      7169     TIP3     H1       HT       0.417000        1.0080           0
     21969 WT1      7169     TIP3     H2       HT       0.417000        1.0080           0
     21970 WT1      7170     TIP3     OH2      OT      -0.834000       15.9994           0
     21971 WT1      7170     TIP3     H1       HT       0.417000        1.0080           0
     21972 WT1      7170     TIP3     H2       HT       0.417000        1.0080           0
     21973 WT1      7171     TIP3     OH2      OT      -0.834000       15.9994           0
     21974 WT1      7171     TIP3     H1       HT       0.417000        1.0080           0
     21975 WT1      7171     TIP3     H2       HT       0.417000        1.0080           0
     21976 WT1      7172     TIP3     OH2      OT      -0.834000       15.9994           0
     21977 WT1      7172     TIP3     H1       HT       0.417000        1.0080           0
     21978 WT1      7172     TIP3     H2       HT       0.417000        1.0080           0
     21979 WT1      7173     TIP3     OH2      OT      -0.834000       15.9994           0
     21980 WT1      7173     TIP3     H1       HT       0.417000        1.0080           0
     21981 WT1      7173     TIP3     H2       HT       0.417000        1.0080           0
     21982 WT1      7174     TIP3     OH2      OT      -0.834000       15.9994           0
     21983 WT1      7174     TIP3     H1       HT       0.417000        1.0080           0
     21984 WT1      7174     TIP3     H2       HT       0.417000        1.0080           0
     21985 WT1      7175     TIP3     OH2      OT      -0.834000       15.9994           0
     21986 WT1      7175     TIP3     H1       HT       0.417000        1.0080           0
     21987 WT1      7175     TIP3     H2       HT       0.417000        1.0080           0
     21988 WT1      7176     TIP3     OH2      OT      -0.834000       15.9994           0
     21989 WT1      7176     TIP3     H1       HT       0.417000        1.0080           0
     21990 WT1      7176     TIP3     H2       HT       0.417000        1.0080           0
     21991 WT1      7177     TIP3     OH2      OT      -0.834000       15.9994           0
     21992 WT1      7177     TIP3     H1       HT       0.417000        1.0080           0
     21993 WT1      7177     TIP3     H2       HT       0.417000        1.0080           0
     21994 WT1      7178     TIP3     OH2      OT      -0.834000       15.9994           0
     21995 WT1      7178     TIP3     H1       HT       0.417000        1.0080           0
     21996 WT1      7178     TIP3     H2       HT       0.417000        1.0080           0
     21997 WT1      7179     TIP3     OH2      OT      -0.834000       15.9994           0
     21998 WT1      7179     TIP3     H1       HT       0.417000        1.0080           0
     21999 WT1      7179     TIP3     H2       HT       0.417000        1.0080           0
     22000 WT1      7180     TIP3     OH2      OT      -0.834000       15.9994           0
     22001 WT1      7180     TIP3     H1       HT       0.417000        1.0080           0
     22002 WT1      7180     TIP3     H2       HT       0.417000        1.0080           0
     22003 WT1      7181     TIP3     OH2      OT      -0.834000       15.9994           0
     22004 WT1      7181     TIP3     H1       HT       0.417000        1.0080           0
     22005 WT1      7181     TIP3     H2       HT       0.417000        1.0080           0
     22006 WT1      7182     TIP3     OH2      OT      -0.834000       15.9994           0
     22007 WT1      7182     TIP3     H1       HT       0.417000        1.0080           0
     22008 WT1      7182     TIP3     H2       HT       0.417000        1.0080           0
     22009 WT1      7183     TIP3     OH2      OT      -0.834000       15.9994           0
     22010 WT1      7183     TIP3     H1       HT       0.417000        1.0080           0
     22011 WT1      7183     TIP3     H2       HT       0.417000        1.0080           0
     22012 WT1      7184     TIP3     OH2      OT      -0.834000       15.9994           0
     22013 WT1      7184     TIP3     H1       HT       0.417000        1.0080           0
     22014 WT1      7184     TIP3     H2       HT       0.417000        1.0080           0
     22015 WT1      7185     TIP3     OH2      OT      -0.834000       15.9994           0
     22016 WT1      7185     TIP3     H1       HT       0.417000        1.0080           0
     22017 WT1      7185     TIP3     H2       HT       0.417000        1.0080           0
     22018 WT1      7186     TIP3     OH2      OT      -0.834000       15.9994           0
     22019 WT1      7186     TIP3     H1       HT       0.417000        1.0080           0
     22020 WT1      7186     TIP3     H2       HT       0.417000        1.0080           0
     22021 WT1      7187     TIP3     OH2      OT      -0.834000       15.9994           0
     22022 WT1      7187     TIP3     H1       HT       0.417000        1.0080           0
     22023 WT1      7187     TIP3     H2       HT       0.417000        1.0080           0
     22024 WT1      7188     TIP3     OH2      OT      -0.834000       15.9994           0
     22025 WT1      7188     TIP3     H1       HT       0.417000        1.0080           0
     22026 WT1      7188     TIP3     H2       HT       0.417000        1.0080           0
     22027 WT1      7189     TIP3     OH2      OT      -0.834000       15.9994           0
     22028 WT1      7189     TIP3     H1       HT       0.417000        1.0080           0
     22029 WT1      7189     TIP3     H2       HT       0.417000        1.0080           0
     22030 WT1      7190     TIP3     OH2      OT      -0.834000       15.9994           0
     22031 WT1      7190     TIP3     H1       HT       0.417000        1.0080           0
     22032 WT1      7190     TIP3     H2       HT       0.417000        1.0080           0
     22033 WT1      7191     TIP3     OH2      OT      -0.834000       15.9994           0
     22034 WT1      7191     TIP3     H1       HT       0.417000        1.0080           0
     22035 WT1      7191     TIP3     H2       HT       0.417000        1.0080           0
     22036 WT1      7192     TIP3     OH2      OT      -0.834000       15.9994           0
     22037 WT1      7192     TIP3     H1       HT       0.417000        1.0080           0
     22038 WT1      7192     TIP3     H2       HT       0.417000        1.0080           0
     22039 WT1      7193     TIP3     OH2      OT      -0.834000       15.9994           0
     22040 WT1      7193     TIP3     H1       HT       0.417000        1.0080           0
     22041 WT1      7193     TIP3     H2       HT       0.417000        1.0080           0
     22042 WT1      7194     TIP3     OH2      OT      -0.834000       15.9994           0
     22043 WT1      7194     TIP3     H1       HT       0.417000        1.0080           0
     22044 WT1      7194     TIP3     H2       HT       0.417000        1.0080           0
     22045 WT1      7195     TIP3     OH2      OT      -0.834000       15.9994           0
     22046 WT1      7195     TIP3     H1       HT       0.417000        1.0080           0
     22047 WT1      7195     TIP3     H2       HT       0.417000        1.0080           0
     22048 WT1      7196     TIP3     OH2      OT      -0.834000       15.9994           0
     22049 WT1      7196     TIP3     H1       HT       0.417000        1.0080           0
     22050 WT1      7196     TIP3     H2       HT       0.417000        1.0080           0
     22051 WT1      7197     TIP3     OH2      OT      -0.834000       15.9994           0
     22052 WT1      7197     TIP3     H1       HT       0.417000        1.0080           0
     22053 WT1      7197     TIP3     H2       HT       0.417000        1.0080           0
     22054 WT1      7198     TIP3     OH2      OT      -0.834000       15.9994           0
     22055 WT1      7198     TIP3     H1       HT       0.417000        1.0080           0
     22056 WT1      7198     TIP3     H2       HT       0.417000        1.0080           0
     22057 WT1      7199     TIP3     OH2      OT      -0.834000       15.9994           0
     22058 WT1      7199     TIP3     H1       HT       0.417000        1.0080           0
     22059 WT1      7199     TIP3     H2       HT       0.417000        1.0080           0
     22060 WT1      7200     TIP3     OH2      OT      -0.834000       15.9994           0
     22061 WT1      7200     TIP3     H1       HT       0.417000        1.0080           0
     22062 WT1      7200     TIP3     H2       HT       0.417000        1.0080           0
     22063 WT1      7201     TIP3     OH2      OT      -0.834000       15.9994           0
     22064 WT1      7201     TIP3     H1       HT       0.417000        1.0080           0
     22065 WT1      7201     TIP3     H2       HT       0.417000        1.0080           0
     22066 WT1      7202     TIP3     OH2      OT      -0.834000       15.9994           0
     22067 WT1      7202     TIP3     H1       HT       0.417000        1.0080           0
     22068 WT1      7202     TIP3     H2       HT       0.417000        1.0080           0
     22069 WT1      7203     TIP3     OH2      OT      -0.834000       15.9994           0
     22070 WT1      7203     TIP3     H1       HT       0.417000        1.0080           0
     22071 WT1      7203     TIP3     H2       HT       0.417000        1.0080           0
     22072 WT1      7204     TIP3     OH2      OT      -0.834000       15.9994           0
     22073 WT1      7204     TIP3     H1       HT       0.417000        1.0080           0
     22074 WT1      7204     TIP3     H2       HT       0.417000        1.0080           0
     22075 WT1      7205     TIP3     OH2      OT      -0.834000       15.9994           0
     22076 WT1      7205     TIP3     H1       HT       0.417000        1.0080           0
     22077 WT1      7205     TIP3     H2       HT       0.417000        1.0080           0
     22078 WT1      7206     TIP3     OH2      OT      -0.834000       15.9994           0
     22079 WT1      7206     TIP3     H1       HT       0.417000        1.0080           0
     22080 WT1      7206     TIP3     H2       HT       0.417000        1.0080           0
     22081 WT1      7207     TIP3     OH2      OT      -0.834000       15.9994           0
     22082 WT1      7207     TIP3     H1       HT       0.417000        1.0080           0
     22083 WT1      7207     TIP3     H2       HT       0.417000        1.0080           0
     22084 WT1      7208     TIP3     OH2      OT      -0.834000       15.9994           0
     22085 WT1      7208     TIP3     H1       HT       0.417000        1.0080           0
     22086 WT1      7208     TIP3     H2       HT       0.417000        1.0080           0
     22087 WT1      7209     TIP3     OH2      OT      -0.834000       15.9994           0
     22088 WT1      7209     TIP3     H1       HT       0.417000        1.0080           0
     22089 WT1      7209     TIP3     H2       HT       0.417000        1.0080           0
     22090 WT1      7210     TIP3     OH2      OT      -0.834000       15.9994           0
     22091 WT1      7210     TIP3     H1       HT       0.417000        1.0080           0
     22092 WT1      7210     TIP3     H2       HT       0.417000        1.0080           0
     22093 WT1      7211     TIP3     OH2      OT      -0.834000       15.9994           0
     22094 WT1      7211     TIP3     H1       HT       0.417000        1.0080           0
     22095 WT1      7211     TIP3     H2       HT       0.417000        1.0080           0
     22096 WT1      7212     TIP3     OH2      OT      -0.834000       15.9994           0
     22097 WT1      7212     TIP3     H1       HT       0.417000        1.0080           0
     22098 WT1      7212     TIP3     H2       HT       0.417000        1.0080           0
     22099 WT1      7213     TIP3     OH2      OT      -0.834000       15.9994           0
     22100 WT1      7213     TIP3     H1       HT       0.417000        1.0080           0
     22101 WT1      7213     TIP3     H2       HT       0.417000        1.0080           0
     22102 WT1      7215     TIP3     OH2      OT      -0.834000       15.9994           0
     22103 WT1      7215     TIP3     H1       HT       0.417000        1.0080           0
     22104 WT1      7215     TIP3     H2       HT       0.417000        1.0080           0
     22105 WT1      7216     TIP3     OH2      OT      -0.834000       15.9994           0
     22106 WT1      7216     TIP3     H1       HT       0.417000        1.0080           0
     22107 WT1      7216     TIP3     H2       HT       0.417000        1.0080           0
     22108 WT1      7217     TIP3     OH2      OT      -0.834000       15.9994           0
     22109 WT1      7217     TIP3     H1       HT       0.417000        1.0080           0
     22110 WT1      7217     TIP3     H2       HT       0.417000        1.0080           0
     22111 WT1      7218     TIP3     OH2      OT      -0.834000       15.9994           0
     22112 WT1      7218     TIP3     H1       HT       0.417000        1.0080           0
     22113 WT1      7218     TIP3     H2       HT       0.417000        1.0080           0
     22114 WT1      7219     TIP3     OH2      OT      -0.834000       15.9994           0
     22115 WT1      7219     TIP3     H1       HT       0.417000        1.0080           0
     22116 WT1      7219     TIP3     H2       HT       0.417000        1.0080           0
     22117 WT1      7220     TIP3     OH2      OT      -0.834000       15.9994           0
     22118 WT1      7220     TIP3     H1       HT       0.417000        1.0080           0
     22119 WT1      7220     TIP3     H2       HT       0.417000        1.0080           0
     22120 WT1      7221     TIP3     OH2      OT      -0.834000       15.9994           0
     22121 WT1      7221     TIP3     H1       HT       0.417000        1.0080           0
     22122 WT1      7221     TIP3     H2       HT       0.417000        1.0080           0
     22123 WT1      7222     TIP3     OH2      OT      -0.834000       15.9994           0
     22124 WT1      7222     TIP3     H1       HT       0.417000        1.0080           0
     22125 WT1      7222     TIP3     H2       HT       0.417000        1.0080           0
     22126 WT1      7223     TIP3     OH2      OT      -0.834000       15.9994           0
     22127 WT1      7223     TIP3     H1       HT       0.417000        1.0080           0
     22128 WT1      7223     TIP3     H2       HT       0.417000        1.0080           0
     22129 WT1      7224     TIP3     OH2      OT      -0.834000       15.9994           0
     22130 WT1      7224     TIP3     H1       HT       0.417000        1.0080           0
     22131 WT1      7224     TIP3     H2       HT       0.417000        1.0080           0
     22132 WT1      7225     TIP3     OH2      OT      -0.834000       15.9994           0
     22133 WT1      7225     TIP3     H1       HT       0.417000        1.0080           0
     22134 WT1      7225     TIP3     H2       HT       0.417000        1.0080           0
     22135 WT1      7226     TIP3     OH2      OT      -0.834000       15.9994           0
     22136 WT1      7226     TIP3     H1       HT       0.417000        1.0080           0
     22137 WT1      7226     TIP3     H2       HT       0.417000        1.0080           0
     22138 WT1      7227     TIP3     OH2      OT      -0.834000       15.9994           0
     22139 WT1      7227     TIP3     H1       HT       0.417000        1.0080           0
     22140 WT1      7227     TIP3     H2       HT       0.417000        1.0080           0
     22141 WT1      7228     TIP3     OH2      OT      -0.834000       15.9994           0
     22142 WT1      7228     TIP3     H1       HT       0.417000        1.0080           0
     22143 WT1      7228     TIP3     H2       HT       0.417000        1.0080           0
     22144 WT1      7229     TIP3     OH2      OT      -0.834000       15.9994           0
     22145 WT1      7229     TIP3     H1       HT       0.417000        1.0080           0
     22146 WT1      7229     TIP3     H2       HT       0.417000        1.0080           0
     22147 WT1      7230     TIP3     OH2      OT      -0.834000       15.9994           0
     22148 WT1      7230     TIP3     H1       HT       0.417000        1.0080           0
     22149 WT1      7230     TIP3     H2       HT       0.417000        1.0080           0
     22150 WT1      7231     TIP3     OH2      OT      -0.834000       15.9994           0
     22151 WT1      7231     TIP3     H1       HT       0.417000        1.0080           0
     22152 WT1      7231     TIP3     H2       HT       0.417000        1.0080           0
     22153 WT1      7232     TIP3     OH2      OT      -0.834000       15.9994           0
     22154 WT1      7232     TIP3     H1       HT       0.417000        1.0080           0
     22155 WT1      7232     TIP3     H2       HT       0.417000        1.0080           0
     22156 WT1      7233     TIP3     OH2      OT      -0.834000       15.9994           0
     22157 WT1      7233     TIP3     H1       HT       0.417000        1.0080           0
     22158 WT1      7233     TIP3     H2       HT       0.417000        1.0080           0
     22159 WT1      7234     TIP3     OH2      OT      -0.834000       15.9994           0
     22160 WT1      7234     TIP3     H1       HT       0.417000        1.0080           0
     22161 WT1      7234     TIP3     H2       HT       0.417000        1.0080           0
     22162 WT1      7235     TIP3     OH2      OT      -0.834000       15.9994           0
     22163 WT1      7235     TIP3     H1       HT       0.417000        1.0080           0
     22164 WT1      7235     TIP3     H2       HT       0.417000        1.0080           0
     22165 WT1      7236     TIP3     OH2      OT      -0.834000       15.9994           0
     22166 WT1      7236     TIP3     H1       HT       0.417000        1.0080           0
     22167 WT1      7236     TIP3     H2       HT       0.417000        1.0080           0
     22168 WT1      7237     TIP3     OH2      OT      -0.834000       15.9994           0
     22169 WT1      7237     TIP3     H1       HT       0.417000        1.0080           0
     22170 WT1      7237     TIP3     H2       HT       0.417000        1.0080           0
     22171 WT1      7238     TIP3     OH2      OT      -0.834000       15.9994           0
     22172 WT1      7238     TIP3     H1       HT       0.417000        1.0080           0
     22173 WT1      7238     TIP3     H2       HT       0.417000        1.0080           0
     22174 WT1      7239     TIP3     OH2      OT      -0.834000       15.9994           0
     22175 WT1      7239     TIP3     H1       HT       0.417000        1.0080           0
     22176 WT1      7239     TIP3     H2       HT       0.417000        1.0080           0
     22177 WT1      7240     TIP3     OH2      OT      -0.834000       15.9994           0
     22178 WT1      7240     TIP3     H1       HT       0.417000        1.0080           0
     22179 WT1      7240     TIP3     H2       HT       0.417000        1.0080           0
     22180 WT1      7241     TIP3     OH2      OT      -0.834000       15.9994           0
     22181 WT1      7241     TIP3     H1       HT       0.417000        1.0080           0
     22182 WT1      7241     TIP3     H2       HT       0.417000        1.0080           0
     22183 WT1      7242     TIP3     OH2      OT      -0.834000       15.9994           0
     22184 WT1      7242     TIP3     H1       HT       0.417000        1.0080           0
     22185 WT1      7242     TIP3     H2       HT       0.417000        1.0080           0
     22186 WT1      7243     TIP3     OH2      OT      -0.834000       15.9994           0
     22187 WT1      7243     TIP3     H1       HT       0.417000        1.0080           0
     22188 WT1      7243     TIP3     H2       HT       0.417000        1.0080           0
     22189 WT1      7244     TIP3     OH2      OT      -0.834000       15.9994           0
     22190 WT1      7244     TIP3     H1       HT       0.417000        1.0080           0
     22191 WT1      7244     TIP3     H2       HT       0.417000        1.0080           0
     22192 WT1      7245     TIP3     OH2      OT      -0.834000       15.9994           0
     22193 WT1      7245     TIP3     H1       HT       0.417000        1.0080           0
     22194 WT1      7245     TIP3     H2       HT       0.417000        1.0080           0
     22195 WT1      7246     TIP3     OH2      OT      -0.834000       15.9994           0
     22196 WT1      7246     TIP3     H1       HT       0.417000        1.0080           0
     22197 WT1      7246     TIP3     H2       HT       0.417000        1.0080           0
     22198 WT1      7247     TIP3     OH2      OT      -0.834000       15.9994           0
     22199 WT1      7247     TIP3     H1       HT       0.417000        1.0080           0
     22200 WT1      7247     TIP3     H2       HT       0.417000        1.0080           0
     22201 WT1      7248     TIP3     OH2      OT      -0.834000       15.9994           0
     22202 WT1      7248     TIP3     H1       HT       0.417000        1.0080           0
     22203 WT1      7248     TIP3     H2       HT       0.417000        1.0080           0
     22204 WT1      7249     TIP3     OH2      OT      -0.834000       15.9994           0
     22205 WT1      7249     TIP3     H1       HT       0.417000        1.0080           0
     22206 WT1      7249     TIP3     H2       HT       0.417000        1.0080           0
     22207 WT1      7250     TIP3     OH2      OT      -0.834000       15.9994           0
     22208 WT1      7250     TIP3     H1       HT       0.417000        1.0080           0
     22209 WT1      7250     TIP3     H2       HT       0.417000        1.0080           0
     22210 WT1      7251     TIP3     OH2      OT      -0.834000       15.9994           0
     22211 WT1      7251     TIP3     H1       HT       0.417000        1.0080           0
     22212 WT1      7251     TIP3     H2       HT       0.417000        1.0080           0
     22213 WT1      7252     TIP3     OH2      OT      -0.834000       15.9994           0
     22214 WT1      7252     TIP3     H1       HT       0.417000        1.0080           0
     22215 WT1      7252     TIP3     H2       HT       0.417000        1.0080           0
     22216 WT1      7253     TIP3     OH2      OT      -0.834000       15.9994           0
     22217 WT1      7253     TIP3     H1       HT       0.417000        1.0080           0
     22218 WT1      7253     TIP3     H2       HT       0.417000        1.0080           0
     22219 WT1      7254     TIP3     OH2      OT      -0.834000       15.9994           0
     22220 WT1      7254     TIP3     H1       HT       0.417000        1.0080           0
     22221 WT1      7254     TIP3     H2       HT       0.417000        1.0080           0
     22222 WT1      7255     TIP3     OH2      OT      -0.834000       15.9994           0
     22223 WT1      7255     TIP3     H1       HT       0.417000        1.0080           0
     22224 WT1      7255     TIP3     H2       HT       0.417000        1.0080           0
     22225 WT1      7256     TIP3     OH2      OT      -0.834000       15.9994           0
     22226 WT1      7256     TIP3     H1       HT       0.417000        1.0080           0
     22227 WT1      7256     TIP3     H2       HT       0.417000        1.0080           0
     22228 WT1      7257     TIP3     OH2      OT      -0.834000       15.9994           0
     22229 WT1      7257     TIP3     H1       HT       0.417000        1.0080           0
     22230 WT1      7257     TIP3     H2       HT       0.417000        1.0080           0
     22231 WT1      7258     TIP3     OH2      OT      -0.834000       15.9994           0
     22232 WT1      7258     TIP3     H1       HT       0.417000        1.0080           0
     22233 WT1      7258     TIP3     H2       HT       0.417000        1.0080           0
     22234 WT1      7259     TIP3     OH2      OT      -0.834000       15.9994           0
     22235 WT1      7259     TIP3     H1       HT       0.417000        1.0080           0
     22236 WT1      7259     TIP3     H2       HT       0.417000        1.0080           0
     22237 WT1      7260     TIP3     OH2      OT      -0.834000       15.9994           0
     22238 WT1      7260     TIP3     H1       HT       0.417000        1.0080           0
     22239 WT1      7260     TIP3     H2       HT       0.417000        1.0080           0
     22240 WT1      7261     TIP3     OH2      OT      -0.834000       15.9994           0
     22241 WT1      7261     TIP3     H1       HT       0.417000        1.0080           0
     22242 WT1      7261     TIP3     H2       HT       0.417000        1.0080           0
     22243 WT1      7262     TIP3     OH2      OT      -0.834000       15.9994           0
     22244 WT1      7262     TIP3     H1       HT       0.417000        1.0080           0
     22245 WT1      7262     TIP3     H2       HT       0.417000        1.0080           0
     22246 WT1      7263     TIP3     OH2      OT      -0.834000       15.9994           0
     22247 WT1      7263     TIP3     H1       HT       0.417000        1.0080           0
     22248 WT1      7263     TIP3     H2       HT       0.417000        1.0080           0
     22249 WT1      7264     TIP3     OH2      OT      -0.834000       15.9994           0
     22250 WT1      7264     TIP3     H1       HT       0.417000        1.0080           0
     22251 WT1      7264     TIP3     H2       HT       0.417000        1.0080           0
     22252 WT1      7265     TIP3     OH2      OT      -0.834000       15.9994           0
     22253 WT1      7265     TIP3     H1       HT       0.417000        1.0080           0
     22254 WT1      7265     TIP3     H2       HT       0.417000        1.0080           0
     22255 WT1      7266     TIP3     OH2      OT      -0.834000       15.9994           0
     22256 WT1      7266     TIP3     H1       HT       0.417000        1.0080           0
     22257 WT1      7266     TIP3     H2       HT       0.417000        1.0080           0
     22258 WT1      7267     TIP3     OH2      OT      -0.834000       15.9994           0
     22259 WT1      7267     TIP3     H1       HT       0.417000        1.0080           0
     22260 WT1      7267     TIP3     H2       HT       0.417000        1.0080           0
     22261 WT1      7268     TIP3     OH2      OT      -0.834000       15.9994           0
     22262 WT1      7268     TIP3     H1       HT       0.417000        1.0080           0
     22263 WT1      7268     TIP3     H2       HT       0.417000        1.0080           0
     22264 WT1      7269     TIP3     OH2      OT      -0.834000       15.9994           0
     22265 WT1      7269     TIP3     H1       HT       0.417000        1.0080           0
     22266 WT1      7269     TIP3     H2       HT       0.417000        1.0080           0
     22267 WT1      7270     TIP3     OH2      OT      -0.834000       15.9994           0
     22268 WT1      7270     TIP3     H1       HT       0.417000        1.0080           0
     22269 WT1      7270     TIP3     H2       HT       0.417000        1.0080           0
     22270 WT1      7271     TIP3     OH2      OT      -0.834000       15.9994           0
     22271 WT1      7271     TIP3     H1       HT       0.417000        1.0080           0
     22272 WT1      7271     TIP3     H2       HT       0.417000        1.0080           0
     22273 WT1      7272     TIP3     OH2      OT      -0.834000       15.9994           0
     22274 WT1      7272     TIP3     H1       HT       0.417000        1.0080           0
     22275 WT1      7272     TIP3     H2       HT       0.417000        1.0080           0
     22276 WT1      7273     TIP3     OH2      OT      -0.834000       15.9994           0
     22277 WT1      7273     TIP3     H1       HT       0.417000        1.0080           0
     22278 WT1      7273     TIP3     H2       HT       0.417000        1.0080           0
     22279 WT1      7274     TIP3     OH2      OT      -0.834000       15.9994           0
     22280 WT1      7274     TIP3     H1       HT       0.417000        1.0080           0
     22281 WT1      7274     TIP3     H2       HT       0.417000        1.0080           0
     22282 WT1      7275     TIP3     OH2      OT      -0.834000       15.9994           0
     22283 WT1      7275     TIP3     H1       HT       0.417000        1.0080           0
     22284 WT1      7275     TIP3     H2       HT       0.417000        1.0080           0
     22285 WT1      7276     TIP3     OH2      OT      -0.834000       15.9994           0
     22286 WT1      7276     TIP3     H1       HT       0.417000        1.0080           0
     22287 WT1      7276     TIP3     H2       HT       0.417000        1.0080           0
     22288 WT1      7277     TIP3     OH2      OT      -0.834000       15.9994           0
     22289 WT1      7277     TIP3     H1       HT       0.417000        1.0080           0
     22290 WT1      7277     TIP3     H2       HT       0.417000        1.0080           0
     22291 WT1      7278     TIP3     OH2      OT      -0.834000       15.9994           0
     22292 WT1      7278     TIP3     H1       HT       0.417000        1.0080           0
     22293 WT1      7278     TIP3     H2       HT       0.417000        1.0080           0
     22294 WT1      7279     TIP3     OH2      OT      -0.834000       15.9994           0
     22295 WT1      7279     TIP3     H1       HT       0.417000        1.0080           0
     22296 WT1      7279     TIP3     H2       HT       0.417000        1.0080           0
     22297 WT1      7280     TIP3     OH2      OT      -0.834000       15.9994           0
     22298 WT1      7280     TIP3     H1       HT       0.417000        1.0080           0
     22299 WT1      7280     TIP3     H2       HT       0.417000        1.0080           0
     22300 WT1      7281     TIP3     OH2      OT      -0.834000       15.9994           0
     22301 WT1      7281     TIP3     H1       HT       0.417000        1.0080           0
     22302 WT1      7281     TIP3     H2       HT       0.417000        1.0080           0
     22303 WT1      7282     TIP3     OH2      OT      -0.834000       15.9994           0
     22304 WT1      7282     TIP3     H1       HT       0.417000        1.0080           0
     22305 WT1      7282     TIP3     H2       HT       0.417000        1.0080           0
     22306 WT1      7283     TIP3     OH2      OT      -0.834000       15.9994           0
     22307 WT1      7283     TIP3     H1       HT       0.417000        1.0080           0
     22308 WT1      7283     TIP3     H2       HT       0.417000        1.0080           0
     22309 WT1      7284     TIP3     OH2      OT      -0.834000       15.9994           0
     22310 WT1      7284     TIP3     H1       HT       0.417000        1.0080           0
     22311 WT1      7284     TIP3     H2       HT       0.417000        1.0080           0
     22312 WT1      7285     TIP3     OH2      OT      -0.834000       15.9994           0
     22313 WT1      7285     TIP3     H1       HT       0.417000        1.0080           0
     22314 WT1      7285     TIP3     H2       HT       0.417000        1.0080           0
     22315 WT1      7286     TIP3     OH2      OT      -0.834000       15.9994           0
     22316 WT1      7286     TIP3     H1       HT       0.417000        1.0080           0
     22317 WT1      7286     TIP3     H2       HT       0.417000        1.0080           0
     22318 WT1      7287     TIP3     OH2      OT      -0.834000       15.9994           0
     22319 WT1      7287     TIP3     H1       HT       0.417000        1.0080           0
     22320 WT1      7287     TIP3     H2       HT       0.417000        1.0080           0
     22321 WT1      7288     TIP3     OH2      OT      -0.834000       15.9994           0
     22322 WT1      7288     TIP3     H1       HT       0.417000        1.0080           0
     22323 WT1      7288     TIP3     H2       HT       0.417000        1.0080           0
     22324 WT1      7289     TIP3     OH2      OT      -0.834000       15.9994           0
     22325 WT1      7289     TIP3     H1       HT       0.417000        1.0080           0
     22326 WT1      7289     TIP3     H2       HT       0.417000        1.0080           0
     22327 WT1      7290     TIP3     OH2      OT      -0.834000       15.9994           0
     22328 WT1      7290     TIP3     H1       HT       0.417000        1.0080           0
     22329 WT1      7290     TIP3     H2       HT       0.417000        1.0080           0
     22330 WT1      7291     TIP3     OH2      OT      -0.834000       15.9994           0
     22331 WT1      7291     TIP3     H1       HT       0.417000        1.0080           0
     22332 WT1      7291     TIP3     H2       HT       0.417000        1.0080           0
     22333 WT1      7292     TIP3     OH2      OT      -0.834000       15.9994           0
     22334 WT1      7292     TIP3     H1       HT       0.417000        1.0080           0
     22335 WT1      7292     TIP3     H2       HT       0.417000        1.0080           0
     22336 WT1      7293     TIP3     OH2      OT      -0.834000       15.9994           0
     22337 WT1      7293     TIP3     H1       HT       0.417000        1.0080           0
     22338 WT1      7293     TIP3     H2       HT       0.417000        1.0080           0
     22339 WT1      7294     TIP3     OH2      OT      -0.834000       15.9994           0
     22340 WT1      7294     TIP3     H1       HT       0.417000        1.0080           0
     22341 WT1      7294     TIP3     H2       HT       0.417000        1.0080           0
     22342 WT1      7295     TIP3     OH2      OT      -0.834000       15.9994           0
     22343 WT1      7295     TIP3     H1       HT       0.417000        1.0080           0
     22344 WT1      7295     TIP3     H2       HT       0.417000        1.0080           0
     22345 WT1      7296     TIP3     OH2      OT      -0.834000       15.9994           0
     22346 WT1      7296     TIP3     H1       HT       0.417000        1.0080           0
     22347 WT1      7296     TIP3     H2       HT       0.417000        1.0080           0
     22348 WT1      7297     TIP3     OH2      OT      -0.834000       15.9994           0
     22349 WT1      7297     TIP3     H1       HT       0.417000        1.0080           0
     22350 WT1      7297     TIP3     H2       HT       0.417000        1.0080           0
     22351 WT1      7298     TIP3     OH2      OT      -0.834000       15.9994           0
     22352 WT1      7298     TIP3     H1       HT       0.417000        1.0080           0
     22353 WT1      7298     TIP3     H2       HT       0.417000        1.0080           0
     22354 WT1      7299     TIP3     OH2      OT      -0.834000       15.9994           0
     22355 WT1      7299     TIP3     H1       HT       0.417000        1.0080           0
     22356 WT1      7299     TIP3     H2       HT       0.417000        1.0080           0
     22357 WT1      7300     TIP3     OH2      OT      -0.834000       15.9994           0
     22358 WT1      7300     TIP3     H1       HT       0.417000        1.0080           0
     22359 WT1      7300     TIP3     H2       HT       0.417000        1.0080           0
     22360 WT1      7301     TIP3     OH2      OT      -0.834000       15.9994           0
     22361 WT1      7301     TIP3     H1       HT       0.417000        1.0080           0
     22362 WT1      7301     TIP3     H2       HT       0.417000        1.0080           0
     22363 WT1      7302     TIP3     OH2      OT      -0.834000       15.9994           0
     22364 WT1      7302     TIP3     H1       HT       0.417000        1.0080           0
     22365 WT1      7302     TIP3     H2       HT       0.417000        1.0080           0
     22366 WT1      7303     TIP3     OH2      OT      -0.834000       15.9994           0
     22367 WT1      7303     TIP3     H1       HT       0.417000        1.0080           0
     22368 WT1      7303     TIP3     H2       HT       0.417000        1.0080           0
     22369 WT1      7305     TIP3     OH2      OT      -0.834000       15.9994           0
     22370 WT1      7305     TIP3     H1       HT       0.417000        1.0080           0
     22371 WT1      7305     TIP3     H2       HT       0.417000        1.0080           0
     22372 WT1      7306     TIP3     OH2      OT      -0.834000       15.9994           0
     22373 WT1      7306     TIP3     H1       HT       0.417000        1.0080           0
     22374 WT1      7306     TIP3     H2       HT       0.417000        1.0080           0
     22375 WT1      7307     TIP3     OH2      OT      -0.834000       15.9994           0
     22376 WT1      7307     TIP3     H1       HT       0.417000        1.0080           0
     22377 WT1      7307     TIP3     H2       HT       0.417000        1.0080           0
     22378 WT1      7309     TIP3     OH2      OT      -0.834000       15.9994           0
     22379 WT1      7309     TIP3     H1       HT       0.417000        1.0080           0
     22380 WT1      7309     TIP3     H2       HT       0.417000        1.0080           0
     22381 WT1      7310     TIP3     OH2      OT      -0.834000       15.9994           0
     22382 WT1      7310     TIP3     H1       HT       0.417000        1.0080           0
     22383 WT1      7310     TIP3     H2       HT       0.417000        1.0080           0
     22384 WT1      7311     TIP3     OH2      OT      -0.834000       15.9994           0
     22385 WT1      7311     TIP3     H1       HT       0.417000        1.0080           0
     22386 WT1      7311     TIP3     H2       HT       0.417000        1.0080           0
     22387 WT1      7312     TIP3     OH2      OT      -0.834000       15.9994           0
     22388 WT1      7312     TIP3     H1       HT       0.417000        1.0080           0
     22389 WT1      7312     TIP3     H2       HT       0.417000        1.0080           0
     22390 WT1      7313     TIP3     OH2      OT      -0.834000       15.9994           0
     22391 WT1      7313     TIP3     H1       HT       0.417000        1.0080           0
     22392 WT1      7313     TIP3     H2       HT       0.417000        1.0080           0
     22393 WT1      7314     TIP3     OH2      OT      -0.834000       15.9994           0
     22394 WT1      7314     TIP3     H1       HT       0.417000        1.0080           0
     22395 WT1      7314     TIP3     H2       HT       0.417000        1.0080           0
     22396 WT1      7315     TIP3     OH2      OT      -0.834000       15.9994           0
     22397 WT1      7315     TIP3     H1       HT       0.417000        1.0080           0
     22398 WT1      7315     TIP3     H2       HT       0.417000        1.0080           0
     22399 WT1      7316     TIP3     OH2      OT      -0.834000       15.9994           0
     22400 WT1      7316     TIP3     H1       HT       0.417000        1.0080           0
     22401 WT1      7316     TIP3     H2       HT       0.417000        1.0080           0
     22402 WT1      7317     TIP3     OH2      OT      -0.834000       15.9994           0
     22403 WT1      7317     TIP3     H1       HT       0.417000        1.0080           0
     22404 WT1      7317     TIP3     H2       HT       0.417000        1.0080           0
     22405 WT1      7318     TIP3     OH2      OT      -0.834000       15.9994           0
     22406 WT1      7318     TIP3     H1       HT       0.417000        1.0080           0
     22407 WT1      7318     TIP3     H2       HT       0.417000        1.0080           0
     22408 WT1      7319     TIP3     OH2      OT      -0.834000       15.9994           0
     22409 WT1      7319     TIP3     H1       HT       0.417000        1.0080           0
     22410 WT1      7319     TIP3     H2       HT       0.417000        1.0080           0
     22411 WT1      7320     TIP3     OH2      OT      -0.834000       15.9994           0
     22412 WT1      7320     TIP3     H1       HT       0.417000        1.0080           0
     22413 WT1      7320     TIP3     H2       HT       0.417000        1.0080           0
     22414 WT1      7321     TIP3     OH2      OT      -0.834000       15.9994           0
     22415 WT1      7321     TIP3     H1       HT       0.417000        1.0080           0
     22416 WT1      7321     TIP3     H2       HT       0.417000        1.0080           0
     22417 WT1      7322     TIP3     OH2      OT      -0.834000       15.9994           0
     22418 WT1      7322     TIP3     H1       HT       0.417000        1.0080           0
     22419 WT1      7322     TIP3     H2       HT       0.417000        1.0080           0
     22420 WT1      7323     TIP3     OH2      OT      -0.834000       15.9994           0
     22421 WT1      7323     TIP3     H1       HT       0.417000        1.0080           0
     22422 WT1      7323     TIP3     H2       HT       0.417000        1.0080           0
     22423 WT1      7326     TIP3     OH2      OT      -0.834000       15.9994           0
     22424 WT1      7326     TIP3     H1       HT       0.417000        1.0080           0
     22425 WT1      7326     TIP3     H2       HT       0.417000        1.0080           0
     22426 WT1      7327     TIP3     OH2      OT      -0.834000       15.9994           0
     22427 WT1      7327     TIP3     H1       HT       0.417000        1.0080           0
     22428 WT1      7327     TIP3     H2       HT       0.417000        1.0080           0
     22429 WT1      7328     TIP3     OH2      OT      -0.834000       15.9994           0
     22430 WT1      7328     TIP3     H1       HT       0.417000        1.0080           0
     22431 WT1      7328     TIP3     H2       HT       0.417000        1.0080           0
     22432 WT1      7329     TIP3     OH2      OT      -0.834000       15.9994           0
     22433 WT1      7329     TIP3     H1       HT       0.417000        1.0080           0
     22434 WT1      7329     TIP3     H2       HT       0.417000        1.0080           0
     22435 WT1      7330     TIP3     OH2      OT      -0.834000       15.9994           0
     22436 WT1      7330     TIP3     H1       HT       0.417000        1.0080           0
     22437 WT1      7330     TIP3     H2       HT       0.417000        1.0080           0
     22438 WT1      7331     TIP3     OH2      OT      -0.834000       15.9994           0
     22439 WT1      7331     TIP3     H1       HT       0.417000        1.0080           0
     22440 WT1      7331     TIP3     H2       HT       0.417000        1.0080           0
     22441 WT1      7332     TIP3     OH2      OT      -0.834000       15.9994           0
     22442 WT1      7332     TIP3     H1       HT       0.417000        1.0080           0
     22443 WT1      7332     TIP3     H2       HT       0.417000        1.0080           0
     22444 WT1      7333     TIP3     OH2      OT      -0.834000       15.9994           0
     22445 WT1      7333     TIP3     H1       HT       0.417000        1.0080           0
     22446 WT1      7333     TIP3     H2       HT       0.417000        1.0080           0
     22447 WT1      7334     TIP3     OH2      OT      -0.834000       15.9994           0
     22448 WT1      7334     TIP3     H1       HT       0.417000        1.0080           0
     22449 WT1      7334     TIP3     H2       HT       0.417000        1.0080           0
     22450 WT1      7335     TIP3     OH2      OT      -0.834000       15.9994           0
     22451 WT1      7335     TIP3     H1       HT       0.417000        1.0080           0
     22452 WT1      7335     TIP3     H2       HT       0.417000        1.0080           0
     22453 WT1      7336     TIP3     OH2      OT      -0.834000       15.9994           0
     22454 WT1      7336     TIP3     H1       HT       0.417000        1.0080           0
     22455 WT1      7336     TIP3     H2       HT       0.417000        1.0080           0
     22456 WT1      7337     TIP3     OH2      OT      -0.834000       15.9994           0
     22457 WT1      7337     TIP3     H1       HT       0.417000        1.0080           0
     22458 WT1      7337     TIP3     H2       HT       0.417000        1.0080           0
     22459 WT1      7338     TIP3     OH2      OT      -0.834000       15.9994           0
     22460 WT1      7338     TIP3     H1       HT       0.417000        1.0080           0
     22461 WT1      7338     TIP3     H2       HT       0.417000        1.0080           0
     22462 WT1      7339     TIP3     OH2      OT      -0.834000       15.9994           0
     22463 WT1      7339     TIP3     H1       HT       0.417000        1.0080           0
     22464 WT1      7339     TIP3     H2       HT       0.417000        1.0080           0
     22465 WT1      7340     TIP3     OH2      OT      -0.834000       15.9994           0
     22466 WT1      7340     TIP3     H1       HT       0.417000        1.0080           0
     22467 WT1      7340     TIP3     H2       HT       0.417000        1.0080           0
     22468 WT1      7341     TIP3     OH2      OT      -0.834000       15.9994           0
     22469 WT1      7341     TIP3     H1       HT       0.417000        1.0080           0
     22470 WT1      7341     TIP3     H2       HT       0.417000        1.0080           0
     22471 WT1      7342     TIP3     OH2      OT      -0.834000       15.9994           0
     22472 WT1      7342     TIP3     H1       HT       0.417000        1.0080           0
     22473 WT1      7342     TIP3     H2       HT       0.417000        1.0080           0
     22474 WT1      7343     TIP3     OH2      OT      -0.834000       15.9994           0
     22475 WT1      7343     TIP3     H1       HT       0.417000        1.0080           0
     22476 WT1      7343     TIP3     H2       HT       0.417000        1.0080           0
     22477 WT1      7344     TIP3     OH2      OT      -0.834000       15.9994           0
     22478 WT1      7344     TIP3     H1       HT       0.417000        1.0080           0
     22479 WT1      7344     TIP3     H2       HT       0.417000        1.0080           0
     22480 WT1      7345     TIP3     OH2      OT      -0.834000       15.9994           0
     22481 WT1      7345     TIP3     H1       HT       0.417000        1.0080           0
     22482 WT1      7345     TIP3     H2       HT       0.417000        1.0080           0
     22483 WT1      7346     TIP3     OH2      OT      -0.834000       15.9994           0
     22484 WT1      7346     TIP3     H1       HT       0.417000        1.0080           0
     22485 WT1      7346     TIP3     H2       HT       0.417000        1.0080           0
     22486 WT1      7347     TIP3     OH2      OT      -0.834000       15.9994           0
     22487 WT1      7347     TIP3     H1       HT       0.417000        1.0080           0
     22488 WT1      7347     TIP3     H2       HT       0.417000        1.0080           0
     22489 WT1      7348     TIP3     OH2      OT      -0.834000       15.9994           0
     22490 WT1      7348     TIP3     H1       HT       0.417000        1.0080           0
     22491 WT1      7348     TIP3     H2       HT       0.417000        1.0080           0
     22492 WT1      7349     TIP3     OH2      OT      -0.834000       15.9994           0
     22493 WT1      7349     TIP3     H1       HT       0.417000        1.0080           0
     22494 WT1      7349     TIP3     H2       HT       0.417000        1.0080           0
     22495 WT1      7350     TIP3     OH2      OT      -0.834000       15.9994           0
     22496 WT1      7350     TIP3     H1       HT       0.417000        1.0080           0
     22497 WT1      7350     TIP3     H2       HT       0.417000        1.0080           0
     22498 WT1      7351     TIP3     OH2      OT      -0.834000       15.9994           0
     22499 WT1      7351     TIP3     H1       HT       0.417000        1.0080           0
     22500 WT1      7351     TIP3     H2       HT       0.417000        1.0080           0
     22501 WT1      7352     TIP3     OH2      OT      -0.834000       15.9994           0
     22502 WT1      7352     TIP3     H1       HT       0.417000        1.0080           0
     22503 WT1      7352     TIP3     H2       HT       0.417000        1.0080           0
     22504 WT1      7353     TIP3     OH2      OT      -0.834000       15.9994           0
     22505 WT1      7353     TIP3     H1       HT       0.417000        1.0080           0
     22506 WT1      7353     TIP3     H2       HT       0.417000        1.0080           0
     22507 WT1      7354     TIP3     OH2      OT      -0.834000       15.9994           0
     22508 WT1      7354     TIP3     H1       HT       0.417000        1.0080           0
     22509 WT1      7354     TIP3     H2       HT       0.417000        1.0080           0
     22510 WT1      7355     TIP3     OH2      OT      -0.834000       15.9994           0
     22511 WT1      7355     TIP3     H1       HT       0.417000        1.0080           0
     22512 WT1      7355     TIP3     H2       HT       0.417000        1.0080           0
     22513 WT1      7356     TIP3     OH2      OT      -0.834000       15.9994           0
     22514 WT1      7356     TIP3     H1       HT       0.417000        1.0080           0
     22515 WT1      7356     TIP3     H2       HT       0.417000        1.0080           0
     22516 WT1      7357     TIP3     OH2      OT      -0.834000       15.9994           0
     22517 WT1      7357     TIP3     H1       HT       0.417000        1.0080           0
     22518 WT1      7357     TIP3     H2       HT       0.417000        1.0080           0
     22519 WT1      7358     TIP3     OH2      OT      -0.834000       15.9994           0
     22520 WT1      7358     TIP3     H1       HT       0.417000        1.0080           0
     22521 WT1      7358     TIP3     H2       HT       0.417000        1.0080           0
     22522 WT1      7359     TIP3     OH2      OT      -0.834000       15.9994           0
     22523 WT1      7359     TIP3     H1       HT       0.417000        1.0080           0
     22524 WT1      7359     TIP3     H2       HT       0.417000        1.0080           0
     22525 WT1      7360     TIP3     OH2      OT      -0.834000       15.9994           0
     22526 WT1      7360     TIP3     H1       HT       0.417000        1.0080           0
     22527 WT1      7360     TIP3     H2       HT       0.417000        1.0080           0
     22528 WT1      7361     TIP3     OH2      OT      -0.834000       15.9994           0
     22529 WT1      7361     TIP3     H1       HT       0.417000        1.0080           0
     22530 WT1      7361     TIP3     H2       HT       0.417000        1.0080           0
     22531 WT1      7362     TIP3     OH2      OT      -0.834000       15.9994           0
     22532 WT1      7362     TIP3     H1       HT       0.417000        1.0080           0
     22533 WT1      7362     TIP3     H2       HT       0.417000        1.0080           0
     22534 WT1      7363     TIP3     OH2      OT      -0.834000       15.9994           0
     22535 WT1      7363     TIP3     H1       HT       0.417000        1.0080           0
     22536 WT1      7363     TIP3     H2       HT       0.417000        1.0080           0
     22537 WT1      7364     TIP3     OH2      OT      -0.834000       15.9994           0
     22538 WT1      7364     TIP3     H1       HT       0.417000        1.0080           0
     22539 WT1      7364     TIP3     H2       HT       0.417000        1.0080           0
     22540 WT1      7365     TIP3     OH2      OT      -0.834000       15.9994           0
     22541 WT1      7365     TIP3     H1       HT       0.417000        1.0080           0
     22542 WT1      7365     TIP3     H2       HT       0.417000        1.0080           0
     22543 WT1      7366     TIP3     OH2      OT      -0.834000       15.9994           0
     22544 WT1      7366     TIP3     H1       HT       0.417000        1.0080           0
     22545 WT1      7366     TIP3     H2       HT       0.417000        1.0080           0
     22546 WT1      7367     TIP3     OH2      OT      -0.834000       15.9994           0
     22547 WT1      7367     TIP3     H1       HT       0.417000        1.0080           0
     22548 WT1      7367     TIP3     H2       HT       0.417000        1.0080           0
     22549 WT1      7368     TIP3     OH2      OT      -0.834000       15.9994           0
     22550 WT1      7368     TIP3     H1       HT       0.417000        1.0080           0
     22551 WT1      7368     TIP3     H2       HT       0.417000        1.0080           0
     22552 WT1      7369     TIP3     OH2      OT      -0.834000       15.9994           0
     22553 WT1      7369     TIP3     H1       HT       0.417000        1.0080           0
     22554 WT1      7369     TIP3     H2       HT       0.417000        1.0080           0
     22555 WT1      7370     TIP3     OH2      OT      -0.834000       15.9994           0
     22556 WT1      7370     TIP3     H1       HT       0.417000        1.0080           0
     22557 WT1      7370     TIP3     H2       HT       0.417000        1.0080           0
     22558 WT1      7371     TIP3     OH2      OT      -0.834000       15.9994           0
     22559 WT1      7371     TIP3     H1       HT       0.417000        1.0080           0
     22560 WT1      7371     TIP3     H2       HT       0.417000        1.0080           0
     22561 WT1      7372     TIP3     OH2      OT      -0.834000       15.9994           0
     22562 WT1      7372     TIP3     H1       HT       0.417000        1.0080           0
     22563 WT1      7372     TIP3     H2       HT       0.417000        1.0080           0
     22564 WT1      7373     TIP3     OH2      OT      -0.834000       15.9994           0
     22565 WT1      7373     TIP3     H1       HT       0.417000        1.0080           0
     22566 WT1      7373     TIP3     H2       HT       0.417000        1.0080           0
     22567 WT1      7374     TIP3     OH2      OT      -0.834000       15.9994           0
     22568 WT1      7374     TIP3     H1       HT       0.417000        1.0080           0
     22569 WT1      7374     TIP3     H2       HT       0.417000        1.0080           0
     22570 WT1      7375     TIP3     OH2      OT      -0.834000       15.9994           0
     22571 WT1      7375     TIP3     H1       HT       0.417000        1.0080           0
     22572 WT1      7375     TIP3     H2       HT       0.417000        1.0080           0
     22573 WT1      7376     TIP3     OH2      OT      -0.834000       15.9994           0
     22574 WT1      7376     TIP3     H1       HT       0.417000        1.0080           0
     22575 WT1      7376     TIP3     H2       HT       0.417000        1.0080           0
     22576 WT1      7377     TIP3     OH2      OT      -0.834000       15.9994           0
     22577 WT1      7377     TIP3     H1       HT       0.417000        1.0080           0
     22578 WT1      7377     TIP3     H2       HT       0.417000        1.0080           0
     22579 WT1      7378     TIP3     OH2      OT      -0.834000       15.9994           0
     22580 WT1      7378     TIP3     H1       HT       0.417000        1.0080           0
     22581 WT1      7378     TIP3     H2       HT       0.417000        1.0080           0
     22582 WT1      7379     TIP3     OH2      OT      -0.834000       15.9994           0
     22583 WT1      7379     TIP3     H1       HT       0.417000        1.0080           0
     22584 WT1      7379     TIP3     H2       HT       0.417000        1.0080           0
     22585 WT1      7380     TIP3     OH2      OT      -0.834000       15.9994           0
     22586 WT1      7380     TIP3     H1       HT       0.417000        1.0080           0
     22587 WT1      7380     TIP3     H2       HT       0.417000        1.0080           0
     22588 WT1      7381     TIP3     OH2      OT      -0.834000       15.9994           0
     22589 WT1      7381     TIP3     H1       HT       0.417000        1.0080           0
     22590 WT1      7381     TIP3     H2       HT       0.417000        1.0080           0
     22591 WT1      7382     TIP3     OH2      OT      -0.834000       15.9994           0
     22592 WT1      7382     TIP3     H1       HT       0.417000        1.0080           0
     22593 WT1      7382     TIP3     H2       HT       0.417000        1.0080           0
     22594 WT1      7383     TIP3     OH2      OT      -0.834000       15.9994           0
     22595 WT1      7383     TIP3     H1       HT       0.417000        1.0080           0
     22596 WT1      7383     TIP3     H2       HT       0.417000        1.0080           0
     22597 WT1      7384     TIP3     OH2      OT      -0.834000       15.9994           0
     22598 WT1      7384     TIP3     H1       HT       0.417000        1.0080           0
     22599 WT1      7384     TIP3     H2       HT       0.417000        1.0080           0
     22600 WT1      7385     TIP3     OH2      OT      -0.834000       15.9994           0
     22601 WT1      7385     TIP3     H1       HT       0.417000        1.0080           0
     22602 WT1      7385     TIP3     H2       HT       0.417000        1.0080           0
     22603 WT1      7386     TIP3     OH2      OT      -0.834000       15.9994           0
     22604 WT1      7386     TIP3     H1       HT       0.417000        1.0080           0
     22605 WT1      7386     TIP3     H2       HT       0.417000        1.0080           0
     22606 WT1      7387     TIP3     OH2      OT      -0.834000       15.9994           0
     22607 WT1      7387     TIP3     H1       HT       0.417000        1.0080           0
     22608 WT1      7387     TIP3     H2       HT       0.417000        1.0080           0
     22609 WT1      7388     TIP3     OH2      OT      -0.834000       15.9994           0
     22610 WT1      7388     TIP3     H1       HT       0.417000        1.0080           0
     22611 WT1      7388     TIP3     H2       HT       0.417000        1.0080           0
     22612 WT1      7389     TIP3     OH2      OT      -0.834000       15.9994           0
     22613 WT1      7389     TIP3     H1       HT       0.417000        1.0080           0
     22614 WT1      7389     TIP3     H2       HT       0.417000        1.0080           0
     22615 WT1      7390     TIP3     OH2      OT      -0.834000       15.9994           0
     22616 WT1      7390     TIP3     H1       HT       0.417000        1.0080           0
     22617 WT1      7390     TIP3     H2       HT       0.417000        1.0080           0
     22618 WT1      7391     TIP3     OH2      OT      -0.834000       15.9994           0
     22619 WT1      7391     TIP3     H1       HT       0.417000        1.0080           0
     22620 WT1      7391     TIP3     H2       HT       0.417000        1.0080           0
     22621 WT1      7392     TIP3     OH2      OT      -0.834000       15.9994           0
     22622 WT1      7392     TIP3     H1       HT       0.417000        1.0080           0
     22623 WT1      7392     TIP3     H2       HT       0.417000        1.0080           0
     22624 WT1      7393     TIP3     OH2      OT      -0.834000       15.9994           0
     22625 WT1      7393     TIP3     H1       HT       0.417000        1.0080           0
     22626 WT1      7393     TIP3     H2       HT       0.417000        1.0080           0
     22627 WT1      7394     TIP3     OH2      OT      -0.834000       15.9994           0
     22628 WT1      7394     TIP3     H1       HT       0.417000        1.0080           0
     22629 WT1      7394     TIP3     H2       HT       0.417000        1.0080           0
     22630 WT1      7395     TIP3     OH2      OT      -0.834000       15.9994           0
     22631 WT1      7395     TIP3     H1       HT       0.417000        1.0080           0
     22632 WT1      7395     TIP3     H2       HT       0.417000        1.0080           0
     22633 WT1      7396     TIP3     OH2      OT      -0.834000       15.9994           0
     22634 WT1      7396     TIP3     H1       HT       0.417000        1.0080           0
     22635 WT1      7396     TIP3     H2       HT       0.417000        1.0080           0
     22636 WT1      7397     TIP3     OH2      OT      -0.834000       15.9994           0
     22637 WT1      7397     TIP3     H1       HT       0.417000        1.0080           0
     22638 WT1      7397     TIP3     H2       HT       0.417000        1.0080           0
     22639 WT1      7398     TIP3     OH2      OT      -0.834000       15.9994           0
     22640 WT1      7398     TIP3     H1       HT       0.417000        1.0080           0
     22641 WT1      7398     TIP3     H2       HT       0.417000        1.0080           0
     22642 WT1      7399     TIP3     OH2      OT      -0.834000       15.9994           0
     22643 WT1      7399     TIP3     H1       HT       0.417000        1.0080           0
     22644 WT1      7399     TIP3     H2       HT       0.417000        1.0080           0
     22645 WT1      7400     TIP3     OH2      OT      -0.834000       15.9994           0
     22646 WT1      7400     TIP3     H1       HT       0.417000        1.0080           0
     22647 WT1      7400     TIP3     H2       HT       0.417000        1.0080           0
     22648 WT1      7401     TIP3     OH2      OT      -0.834000       15.9994           0
     22649 WT1      7401     TIP3     H1       HT       0.417000        1.0080           0
     22650 WT1      7401     TIP3     H2       HT       0.417000        1.0080           0
     22651 WT1      7402     TIP3     OH2      OT      -0.834000       15.9994           0
     22652 WT1      7402     TIP3     H1       HT       0.417000        1.0080           0
     22653 WT1      7402     TIP3     H2       HT       0.417000        1.0080           0
     22654 WT1      7403     TIP3     OH2      OT      -0.834000       15.9994           0
     22655 WT1      7403     TIP3     H1       HT       0.417000        1.0080           0
     22656 WT1      7403     TIP3     H2       HT       0.417000        1.0080           0
     22657 WT1      7404     TIP3     OH2      OT      -0.834000       15.9994           0
     22658 WT1      7404     TIP3     H1       HT       0.417000        1.0080           0
     22659 WT1      7404     TIP3     H2       HT       0.417000        1.0080           0
     22660 WT1      7405     TIP3     OH2      OT      -0.834000       15.9994           0
     22661 WT1      7405     TIP3     H1       HT       0.417000        1.0080           0
     22662 WT1      7405     TIP3     H2       HT       0.417000        1.0080           0
     22663 WT1      7406     TIP3     OH2      OT      -0.834000       15.9994           0
     22664 WT1      7406     TIP3     H1       HT       0.417000        1.0080           0
     22665 WT1      7406     TIP3     H2       HT       0.417000        1.0080           0
     22666 WT1      7407     TIP3     OH2      OT      -0.834000       15.9994           0
     22667 WT1      7407     TIP3     H1       HT       0.417000        1.0080           0
     22668 WT1      7407     TIP3     H2       HT       0.417000        1.0080           0
     22669 WT1      7408     TIP3     OH2      OT      -0.834000       15.9994           0
     22670 WT1      7408     TIP3     H1       HT       0.417000        1.0080           0
     22671 WT1      7408     TIP3     H2       HT       0.417000        1.0080           0
     22672 WT1      7409     TIP3     OH2      OT      -0.834000       15.9994           0
     22673 WT1      7409     TIP3     H1       HT       0.417000        1.0080           0
     22674 WT1      7409     TIP3     H2       HT       0.417000        1.0080           0
     22675 WT1      7410     TIP3     OH2      OT      -0.834000       15.9994           0
     22676 WT1      7410     TIP3     H1       HT       0.417000        1.0080           0
     22677 WT1      7410     TIP3     H2       HT       0.417000        1.0080           0
     22678 WT1      7411     TIP3     OH2      OT      -0.834000       15.9994           0
     22679 WT1      7411     TIP3     H1       HT       0.417000        1.0080           0
     22680 WT1      7411     TIP3     H2       HT       0.417000        1.0080           0
     22681 WT1      7412     TIP3     OH2      OT      -0.834000       15.9994           0
     22682 WT1      7412     TIP3     H1       HT       0.417000        1.0080           0
     22683 WT1      7412     TIP3     H2       HT       0.417000        1.0080           0
     22684 WT1      7413     TIP3     OH2      OT      -0.834000       15.9994           0
     22685 WT1      7413     TIP3     H1       HT       0.417000        1.0080           0
     22686 WT1      7413     TIP3     H2       HT       0.417000        1.0080           0
     22687 WT1      7414     TIP3     OH2      OT      -0.834000       15.9994           0
     22688 WT1      7414     TIP3     H1       HT       0.417000        1.0080           0
     22689 WT1      7414     TIP3     H2       HT       0.417000        1.0080           0
     22690 WT1      7415     TIP3     OH2      OT      -0.834000       15.9994           0
     22691 WT1      7415     TIP3     H1       HT       0.417000        1.0080           0
     22692 WT1      7415     TIP3     H2       HT       0.417000        1.0080           0
     22693 WT1      7416     TIP3     OH2      OT      -0.834000       15.9994           0
     22694 WT1      7416     TIP3     H1       HT       0.417000        1.0080           0
     22695 WT1      7416     TIP3     H2       HT       0.417000        1.0080           0
     22696 WT1      7417     TIP3     OH2      OT      -0.834000       15.9994           0
     22697 WT1      7417     TIP3     H1       HT       0.417000        1.0080           0
     22698 WT1      7417     TIP3     H2       HT       0.417000        1.0080           0
     22699 WT1      7418     TIP3     OH2      OT      -0.834000       15.9994           0
     22700 WT1      7418     TIP3     H1       HT       0.417000        1.0080           0
     22701 WT1      7418     TIP3     H2       HT       0.417000        1.0080           0
     22702 WT1      7419     TIP3     OH2      OT      -0.834000       15.9994           0
     22703 WT1      7419     TIP3     H1       HT       0.417000        1.0080           0
     22704 WT1      7419     TIP3     H2       HT       0.417000        1.0080           0
     22705 WT1      7420     TIP3     OH2      OT      -0.834000       15.9994           0
     22706 WT1      7420     TIP3     H1       HT       0.417000        1.0080           0
     22707 WT1      7420     TIP3     H2       HT       0.417000        1.0080           0
     22708 WT1      7421     TIP3     OH2      OT      -0.834000       15.9994           0
     22709 WT1      7421     TIP3     H1       HT       0.417000        1.0080           0
     22710 WT1      7421     TIP3     H2       HT       0.417000        1.0080           0
     22711 WT1      7422     TIP3     OH2      OT      -0.834000       15.9994           0
     22712 WT1      7422     TIP3     H1       HT       0.417000        1.0080           0
     22713 WT1      7422     TIP3     H2       HT       0.417000        1.0080           0
     22714 WT1      7423     TIP3     OH2      OT      -0.834000       15.9994           0
     22715 WT1      7423     TIP3     H1       HT       0.417000        1.0080           0
     22716 WT1      7423     TIP3     H2       HT       0.417000        1.0080           0
     22717 WT1      7424     TIP3     OH2      OT      -0.834000       15.9994           0
     22718 WT1      7424     TIP3     H1       HT       0.417000        1.0080           0
     22719 WT1      7424     TIP3     H2       HT       0.417000        1.0080           0
     22720 WT1      7425     TIP3     OH2      OT      -0.834000       15.9994           0
     22721 WT1      7425     TIP3     H1       HT       0.417000        1.0080           0
     22722 WT1      7425     TIP3     H2       HT       0.417000        1.0080           0
     22723 WT1      7426     TIP3     OH2      OT      -0.834000       15.9994           0
     22724 WT1      7426     TIP3     H1       HT       0.417000        1.0080           0
     22725 WT1      7426     TIP3     H2       HT       0.417000        1.0080           0
     22726 WT1      7427     TIP3     OH2      OT      -0.834000       15.9994           0
     22727 WT1      7427     TIP3     H1       HT       0.417000        1.0080           0
     22728 WT1      7427     TIP3     H2       HT       0.417000        1.0080           0
     22729 WT1      7428     TIP3     OH2      OT      -0.834000       15.9994           0
     22730 WT1      7428     TIP3     H1       HT       0.417000        1.0080           0
     22731 WT1      7428     TIP3     H2       HT       0.417000        1.0080           0
     22732 WT1      7429     TIP3     OH2      OT      -0.834000       15.9994           0
     22733 WT1      7429     TIP3     H1       HT       0.417000        1.0080           0
     22734 WT1      7429     TIP3     H2       HT       0.417000        1.0080           0
     22735 WT1      7430     TIP3     OH2      OT      -0.834000       15.9994           0
     22736 WT1      7430     TIP3     H1       HT       0.417000        1.0080           0
     22737 WT1      7430     TIP3     H2       HT       0.417000        1.0080           0
     22738 WT1      7431     TIP3     OH2      OT      -0.834000       15.9994           0
     22739 WT1      7431     TIP3     H1       HT       0.417000        1.0080           0
     22740 WT1      7431     TIP3     H2       HT       0.417000        1.0080           0
     22741 WT1      7432     TIP3     OH2      OT      -0.834000       15.9994           0
     22742 WT1      7432     TIP3     H1       HT       0.417000        1.0080           0
     22743 WT1      7432     TIP3     H2       HT       0.417000        1.0080           0
     22744 WT1      7433     TIP3     OH2      OT      -0.834000       15.9994           0
     22745 WT1      7433     TIP3     H1       HT       0.417000        1.0080           0
     22746 WT1      7433     TIP3     H2       HT       0.417000        1.0080           0
     22747 WT1      7434     TIP3     OH2      OT      -0.834000       15.9994           0
     22748 WT1      7434     TIP3     H1       HT       0.417000        1.0080           0
     22749 WT1      7434     TIP3     H2       HT       0.417000        1.0080           0
     22750 WT1      7435     TIP3     OH2      OT      -0.834000       15.9994           0
     22751 WT1      7435     TIP3     H1       HT       0.417000        1.0080           0
     22752 WT1      7435     TIP3     H2       HT       0.417000        1.0080           0
     22753 WT1      7436     TIP3     OH2      OT      -0.834000       15.9994           0
     22754 WT1      7436     TIP3     H1       HT       0.417000        1.0080           0
     22755 WT1      7436     TIP3     H2       HT       0.417000        1.0080           0
     22756 WT1      7437     TIP3     OH2      OT      -0.834000       15.9994           0
     22757 WT1      7437     TIP3     H1       HT       0.417000        1.0080           0
     22758 WT1      7437     TIP3     H2       HT       0.417000        1.0080           0
     22759 WT1      7438     TIP3     OH2      OT      -0.834000       15.9994           0
     22760 WT1      7438     TIP3     H1       HT       0.417000        1.0080           0
     22761 WT1      7438     TIP3     H2       HT       0.417000        1.0080           0
     22762 WT1      7439     TIP3     OH2      OT      -0.834000       15.9994           0
     22763 WT1      7439     TIP3     H1       HT       0.417000        1.0080           0
     22764 WT1      7439     TIP3     H2       HT       0.417000        1.0080           0
     22765 WT1      7440     TIP3     OH2      OT      -0.834000       15.9994           0
     22766 WT1      7440     TIP3     H1       HT       0.417000        1.0080           0
     22767 WT1      7440     TIP3     H2       HT       0.417000        1.0080           0
     22768 WT1      7441     TIP3     OH2      OT      -0.834000       15.9994           0
     22769 WT1      7441     TIP3     H1       HT       0.417000        1.0080           0
     22770 WT1      7441     TIP3     H2       HT       0.417000        1.0080           0
     22771 WT1      7442     TIP3     OH2      OT      -0.834000       15.9994           0
     22772 WT1      7442     TIP3     H1       HT       0.417000        1.0080           0
     22773 WT1      7442     TIP3     H2       HT       0.417000        1.0080           0
     22774 WT1      7443     TIP3     OH2      OT      -0.834000       15.9994           0
     22775 WT1      7443     TIP3     H1       HT       0.417000        1.0080           0
     22776 WT1      7443     TIP3     H2       HT       0.417000        1.0080           0
     22777 WT1      7444     TIP3     OH2      OT      -0.834000       15.9994           0
     22778 WT1      7444     TIP3     H1       HT       0.417000        1.0080           0
     22779 WT1      7444     TIP3     H2       HT       0.417000        1.0080           0
     22780 WT1      7445     TIP3     OH2      OT      -0.834000       15.9994           0
     22781 WT1      7445     TIP3     H1       HT       0.417000        1.0080           0
     22782 WT1      7445     TIP3     H2       HT       0.417000        1.0080           0
     22783 WT1      7446     TIP3     OH2      OT      -0.834000       15.9994           0
     22784 WT1      7446     TIP3     H1       HT       0.417000        1.0080           0
     22785 WT1      7446     TIP3     H2       HT       0.417000        1.0080           0
     22786 WT1      7447     TIP3     OH2      OT      -0.834000       15.9994           0
     22787 WT1      7447     TIP3     H1       HT       0.417000        1.0080           0
     22788 WT1      7447     TIP3     H2       HT       0.417000        1.0080           0
     22789 WT1      7448     TIP3     OH2      OT      -0.834000       15.9994           0
     22790 WT1      7448     TIP3     H1       HT       0.417000        1.0080           0
     22791 WT1      7448     TIP3     H2       HT       0.417000        1.0080           0
     22792 WT1      7449     TIP3     OH2      OT      -0.834000       15.9994           0
     22793 WT1      7449     TIP3     H1       HT       0.417000        1.0080           0
     22794 WT1      7449     TIP3     H2       HT       0.417000        1.0080           0
     22795 WT1      7450     TIP3     OH2      OT      -0.834000       15.9994           0
     22796 WT1      7450     TIP3     H1       HT       0.417000        1.0080           0
     22797 WT1      7450     TIP3     H2       HT       0.417000        1.0080           0
     22798 WT1      7451     TIP3     OH2      OT      -0.834000       15.9994           0
     22799 WT1      7451     TIP3     H1       HT       0.417000        1.0080           0
     22800 WT1      7451     TIP3     H2       HT       0.417000        1.0080           0
     22801 WT1      7452     TIP3     OH2      OT      -0.834000       15.9994           0
     22802 WT1      7452     TIP3     H1       HT       0.417000        1.0080           0
     22803 WT1      7452     TIP3     H2       HT       0.417000        1.0080           0
     22804 WT1      7453     TIP3     OH2      OT      -0.834000       15.9994           0
     22805 WT1      7453     TIP3     H1       HT       0.417000        1.0080           0
     22806 WT1      7453     TIP3     H2       HT       0.417000        1.0080           0
     22807 WT1      7454     TIP3     OH2      OT      -0.834000       15.9994           0
     22808 WT1      7454     TIP3     H1       HT       0.417000        1.0080           0
     22809 WT1      7454     TIP3     H2       HT       0.417000        1.0080           0
     22810 WT1      7455     TIP3     OH2      OT      -0.834000       15.9994           0
     22811 WT1      7455     TIP3     H1       HT       0.417000        1.0080           0
     22812 WT1      7455     TIP3     H2       HT       0.417000        1.0080           0
     22813 WT1      7456     TIP3     OH2      OT      -0.834000       15.9994           0
     22814 WT1      7456     TIP3     H1       HT       0.417000        1.0080           0
     22815 WT1      7456     TIP3     H2       HT       0.417000        1.0080           0
     22816 WT1      7457     TIP3     OH2      OT      -0.834000       15.9994           0
     22817 WT1      7457     TIP3     H1       HT       0.417000        1.0080           0
     22818 WT1      7457     TIP3     H2       HT       0.417000        1.0080           0
     22819 WT1      7458     TIP3     OH2      OT      -0.834000       15.9994           0
     22820 WT1      7458     TIP3     H1       HT       0.417000        1.0080           0
     22821 WT1      7458     TIP3     H2       HT       0.417000        1.0080           0
     22822 WT1      7459     TIP3     OH2      OT      -0.834000       15.9994           0
     22823 WT1      7459     TIP3     H1       HT       0.417000        1.0080           0
     22824 WT1      7459     TIP3     H2       HT       0.417000        1.0080           0
     22825 WT1      7460     TIP3     OH2      OT      -0.834000       15.9994           0
     22826 WT1      7460     TIP3     H1       HT       0.417000        1.0080           0
     22827 WT1      7460     TIP3     H2       HT       0.417000        1.0080           0
     22828 WT1      7461     TIP3     OH2      OT      -0.834000       15.9994           0
     22829 WT1      7461     TIP3     H1       HT       0.417000        1.0080           0
     22830 WT1      7461     TIP3     H2       HT       0.417000        1.0080           0
     22831 WT1      7462     TIP3     OH2      OT      -0.834000       15.9994           0
     22832 WT1      7462     TIP3     H1       HT       0.417000        1.0080           0
     22833 WT1      7462     TIP3     H2       HT       0.417000        1.0080           0
     22834 WT1      7463     TIP3     OH2      OT      -0.834000       15.9994           0
     22835 WT1      7463     TIP3     H1       HT       0.417000        1.0080           0
     22836 WT1      7463     TIP3     H2       HT       0.417000        1.0080           0
     22837 WT1      7464     TIP3     OH2      OT      -0.834000       15.9994           0
     22838 WT1      7464     TIP3     H1       HT       0.417000        1.0080           0
     22839 WT1      7464     TIP3     H2       HT       0.417000        1.0080           0
     22840 WT1      7465     TIP3     OH2      OT      -0.834000       15.9994           0
     22841 WT1      7465     TIP3     H1       HT       0.417000        1.0080           0
     22842 WT1      7465     TIP3     H2       HT       0.417000        1.0080           0
     22843 WT1      7466     TIP3     OH2      OT      -0.834000       15.9994           0
     22844 WT1      7466     TIP3     H1       HT       0.417000        1.0080           0
     22845 WT1      7466     TIP3     H2       HT       0.417000        1.0080           0
     22846 WT1      7467     TIP3     OH2      OT      -0.834000       15.9994           0
     22847 WT1      7467     TIP3     H1       HT       0.417000        1.0080           0
     22848 WT1      7467     TIP3     H2       HT       0.417000        1.0080           0
     22849 WT1      7468     TIP3     OH2      OT      -0.834000       15.9994           0
     22850 WT1      7468     TIP3     H1       HT       0.417000        1.0080           0
     22851 WT1      7468     TIP3     H2       HT       0.417000        1.0080           0
     22852 WT1      7469     TIP3     OH2      OT      -0.834000       15.9994           0
     22853 WT1      7469     TIP3     H1       HT       0.417000        1.0080           0
     22854 WT1      7469     TIP3     H2       HT       0.417000        1.0080           0
     22855 WT1      7470     TIP3     OH2      OT      -0.834000       15.9994           0
     22856 WT1      7470     TIP3     H1       HT       0.417000        1.0080           0
     22857 WT1      7470     TIP3     H2       HT       0.417000        1.0080           0
     22858 WT1      7471     TIP3     OH2      OT      -0.834000       15.9994           0
     22859 WT1      7471     TIP3     H1       HT       0.417000        1.0080           0
     22860 WT1      7471     TIP3     H2       HT       0.417000        1.0080           0
     22861 WT1      7472     TIP3     OH2      OT      -0.834000       15.9994           0
     22862 WT1      7472     TIP3     H1       HT       0.417000        1.0080           0
     22863 WT1      7472     TIP3     H2       HT       0.417000        1.0080           0
     22864 WT1      7473     TIP3     OH2      OT      -0.834000       15.9994           0
     22865 WT1      7473     TIP3     H1       HT       0.417000        1.0080           0
     22866 WT1      7473     TIP3     H2       HT       0.417000        1.0080           0
     22867 WT1      7474     TIP3     OH2      OT      -0.834000       15.9994           0
     22868 WT1      7474     TIP3     H1       HT       0.417000        1.0080           0
     22869 WT1      7474     TIP3     H2       HT       0.417000        1.0080           0
     22870 WT1      7475     TIP3     OH2      OT      -0.834000       15.9994           0
     22871 WT1      7475     TIP3     H1       HT       0.417000        1.0080           0
     22872 WT1      7475     TIP3     H2       HT       0.417000        1.0080           0
     22873 WT1      7476     TIP3     OH2      OT      -0.834000       15.9994           0
     22874 WT1      7476     TIP3     H1       HT       0.417000        1.0080           0
     22875 WT1      7476     TIP3     H2       HT       0.417000        1.0080           0
     22876 WT1      7477     TIP3     OH2      OT      -0.834000       15.9994           0
     22877 WT1      7477     TIP3     H1       HT       0.417000        1.0080           0
     22878 WT1      7477     TIP3     H2       HT       0.417000        1.0080           0
     22879 WT1      7478     TIP3     OH2      OT      -0.834000       15.9994           0
     22880 WT1      7478     TIP3     H1       HT       0.417000        1.0080           0
     22881 WT1      7478     TIP3     H2       HT       0.417000        1.0080           0
     22882 WT1      7479     TIP3     OH2      OT      -0.834000       15.9994           0
     22883 WT1      7479     TIP3     H1       HT       0.417000        1.0080           0
     22884 WT1      7479     TIP3     H2       HT       0.417000        1.0080           0
     22885 WT1      7480     TIP3     OH2      OT      -0.834000       15.9994           0
     22886 WT1      7480     TIP3     H1       HT       0.417000        1.0080           0
     22887 WT1      7480     TIP3     H2       HT       0.417000        1.0080           0
     22888 WT1      7481     TIP3     OH2      OT      -0.834000       15.9994           0
     22889 WT1      7481     TIP3     H1       HT       0.417000        1.0080           0
     22890 WT1      7481     TIP3     H2       HT       0.417000        1.0080           0
     22891 WT1      7482     TIP3     OH2      OT      -0.834000       15.9994           0
     22892 WT1      7482     TIP3     H1       HT       0.417000        1.0080           0
     22893 WT1      7482     TIP3     H2       HT       0.417000        1.0080           0
     22894 WT1      7483     TIP3     OH2      OT      -0.834000       15.9994           0
     22895 WT1      7483     TIP3     H1       HT       0.417000        1.0080           0
     22896 WT1      7483     TIP3     H2       HT       0.417000        1.0080           0
     22897 WT1      7484     TIP3     OH2      OT      -0.834000       15.9994           0
     22898 WT1      7484     TIP3     H1       HT       0.417000        1.0080           0
     22899 WT1      7484     TIP3     H2       HT       0.417000        1.0080           0
     22900 WT1      7485     TIP3     OH2      OT      -0.834000       15.9994           0
     22901 WT1      7485     TIP3     H1       HT       0.417000        1.0080           0
     22902 WT1      7485     TIP3     H2       HT       0.417000        1.0080           0
     22903 WT1      7486     TIP3     OH2      OT      -0.834000       15.9994           0
     22904 WT1      7486     TIP3     H1       HT       0.417000        1.0080           0
     22905 WT1      7486     TIP3     H2       HT       0.417000        1.0080           0
     22906 WT1      7487     TIP3     OH2      OT      -0.834000       15.9994           0
     22907 WT1      7487     TIP3     H1       HT       0.417000        1.0080           0
     22908 WT1      7487     TIP3     H2       HT       0.417000        1.0080           0
     22909 WT1      7488     TIP3     OH2      OT      -0.834000       15.9994           0
     22910 WT1      7488     TIP3     H1       HT       0.417000        1.0080           0
     22911 WT1      7488     TIP3     H2       HT       0.417000        1.0080           0
     22912 WT1      7489     TIP3     OH2      OT      -0.834000       15.9994           0
     22913 WT1      7489     TIP3     H1       HT       0.417000        1.0080           0
     22914 WT1      7489     TIP3     H2       HT       0.417000        1.0080           0
     22915 WT1      7490     TIP3     OH2      OT      -0.834000       15.9994           0
     22916 WT1      7490     TIP3     H1       HT       0.417000        1.0080           0
     22917 WT1      7490     TIP3     H2       HT       0.417000        1.0080           0
     22918 WT1      7491     TIP3     OH2      OT      -0.834000       15.9994           0
     22919 WT1      7491     TIP3     H1       HT       0.417000        1.0080           0
     22920 WT1      7491     TIP3     H2       HT       0.417000        1.0080           0
     22921 WT1      7492     TIP3     OH2      OT      -0.834000       15.9994           0
     22922 WT1      7492     TIP3     H1       HT       0.417000        1.0080           0
     22923 WT1      7492     TIP3     H2       HT       0.417000        1.0080           0
     22924 WT1      7493     TIP3     OH2      OT      -0.834000       15.9994           0
     22925 WT1      7493     TIP3     H1       HT       0.417000        1.0080           0
     22926 WT1      7493     TIP3     H2       HT       0.417000        1.0080           0
     22927 WT1      7494     TIP3     OH2      OT      -0.834000       15.9994           0
     22928 WT1      7494     TIP3     H1       HT       0.417000        1.0080           0
     22929 WT1      7494     TIP3     H2       HT       0.417000        1.0080           0
     22930 WT1      7495     TIP3     OH2      OT      -0.834000       15.9994           0
     22931 WT1      7495     TIP3     H1       HT       0.417000        1.0080           0
     22932 WT1      7495     TIP3     H2       HT       0.417000        1.0080           0
     22933 WT1      7496     TIP3     OH2      OT      -0.834000       15.9994           0
     22934 WT1      7496     TIP3     H1       HT       0.417000        1.0080           0
     22935 WT1      7496     TIP3     H2       HT       0.417000        1.0080           0
     22936 WT1      7497     TIP3     OH2      OT      -0.834000       15.9994           0
     22937 WT1      7497     TIP3     H1       HT       0.417000        1.0080           0
     22938 WT1      7497     TIP3     H2       HT       0.417000        1.0080           0
     22939 WT1      7498     TIP3     OH2      OT      -0.834000       15.9994           0
     22940 WT1      7498     TIP3     H1       HT       0.417000        1.0080           0
     22941 WT1      7498     TIP3     H2       HT       0.417000        1.0080           0
     22942 WT1      7499     TIP3     OH2      OT      -0.834000       15.9994           0
     22943 WT1      7499     TIP3     H1       HT       0.417000        1.0080           0
     22944 WT1      7499     TIP3     H2       HT       0.417000        1.0080           0
     22945 WT1      7500     TIP3     OH2      OT      -0.834000       15.9994           0
     22946 WT1      7500     TIP3     H1       HT       0.417000        1.0080           0
     22947 WT1      7500     TIP3     H2       HT       0.417000        1.0080           0
     22948 WT1      7501     TIP3     OH2      OT      -0.834000       15.9994           0
     22949 WT1      7501     TIP3     H1       HT       0.417000        1.0080           0
     22950 WT1      7501     TIP3     H2       HT       0.417000        1.0080           0
     22951 WT1      7502     TIP3     OH2      OT      -0.834000       15.9994           0
     22952 WT1      7502     TIP3     H1       HT       0.417000        1.0080           0
     22953 WT1      7502     TIP3     H2       HT       0.417000        1.0080           0
     22954 WT1      7503     TIP3     OH2      OT      -0.834000       15.9994           0
     22955 WT1      7503     TIP3     H1       HT       0.417000        1.0080           0
     22956 WT1      7503     TIP3     H2       HT       0.417000        1.0080           0
     22957 WT1      7504     TIP3     OH2      OT      -0.834000       15.9994           0
     22958 WT1      7504     TIP3     H1       HT       0.417000        1.0080           0
     22959 WT1      7504     TIP3     H2       HT       0.417000        1.0080           0
     22960 WT1      7505     TIP3     OH2      OT      -0.834000       15.9994           0
     22961 WT1      7505     TIP3     H1       HT       0.417000        1.0080           0
     22962 WT1      7505     TIP3     H2       HT       0.417000        1.0080           0
     22963 WT1      7506     TIP3     OH2      OT      -0.834000       15.9994           0
     22964 WT1      7506     TIP3     H1       HT       0.417000        1.0080           0
     22965 WT1      7506     TIP3     H2       HT       0.417000        1.0080           0
     22966 WT1      7507     TIP3     OH2      OT      -0.834000       15.9994           0
     22967 WT1      7507     TIP3     H1       HT       0.417000        1.0080           0
     22968 WT1      7507     TIP3     H2       HT       0.417000        1.0080           0
     22969 WT1      7508     TIP3     OH2      OT      -0.834000       15.9994           0
     22970 WT1      7508     TIP3     H1       HT       0.417000        1.0080           0
     22971 WT1      7508     TIP3     H2       HT       0.417000        1.0080           0
     22972 WT1      7509     TIP3     OH2      OT      -0.834000       15.9994           0
     22973 WT1      7509     TIP3     H1       HT       0.417000        1.0080           0
     22974 WT1      7509     TIP3     H2       HT       0.417000        1.0080           0
     22975 WT1      7510     TIP3     OH2      OT      -0.834000       15.9994           0
     22976 WT1      7510     TIP3     H1       HT       0.417000        1.0080           0
     22977 WT1      7510     TIP3     H2       HT       0.417000        1.0080           0
     22978 WT1      7511     TIP3     OH2      OT      -0.834000       15.9994           0
     22979 WT1      7511     TIP3     H1       HT       0.417000        1.0080           0
     22980 WT1      7511     TIP3     H2       HT       0.417000        1.0080           0
     22981 WT1      7512     TIP3     OH2      OT      -0.834000       15.9994           0
     22982 WT1      7512     TIP3     H1       HT       0.417000        1.0080           0
     22983 WT1      7512     TIP3     H2       HT       0.417000        1.0080           0
     22984 WT1      7513     TIP3     OH2      OT      -0.834000       15.9994           0
     22985 WT1      7513     TIP3     H1       HT       0.417000        1.0080           0
     22986 WT1      7513     TIP3     H2       HT       0.417000        1.0080           0
     22987 WT1      7514     TIP3     OH2      OT      -0.834000       15.9994           0
     22988 WT1      7514     TIP3     H1       HT       0.417000        1.0080           0
     22989 WT1      7514     TIP3     H2       HT       0.417000        1.0080           0
     22990 WT1      7515     TIP3     OH2      OT      -0.834000       15.9994           0
     22991 WT1      7515     TIP3     H1       HT       0.417000        1.0080           0
     22992 WT1      7515     TIP3     H2       HT       0.417000        1.0080           0
     22993 WT1      7516     TIP3     OH2      OT      -0.834000       15.9994           0
     22994 WT1      7516     TIP3     H1       HT       0.417000        1.0080           0
     22995 WT1      7516     TIP3     H2       HT       0.417000        1.0080           0
     22996 WT1      7517     TIP3     OH2      OT      -0.834000       15.9994           0
     22997 WT1      7517     TIP3     H1       HT       0.417000        1.0080           0
     22998 WT1      7517     TIP3     H2       HT       0.417000        1.0080           0
     22999 WT1      7518     TIP3     OH2      OT      -0.834000       15.9994           0
     23000 WT1      7518     TIP3     H1       HT       0.417000        1.0080           0
     23001 WT1      7518     TIP3     H2       HT       0.417000        1.0080           0
     23002 WT1      7519     TIP3     OH2      OT      -0.834000       15.9994           0
     23003 WT1      7519     TIP3     H1       HT       0.417000        1.0080           0
     23004 WT1      7519     TIP3     H2       HT       0.417000        1.0080           0
     23005 WT1      7520     TIP3     OH2      OT      -0.834000       15.9994           0
     23006 WT1      7520     TIP3     H1       HT       0.417000        1.0080           0
     23007 WT1      7520     TIP3     H2       HT       0.417000        1.0080           0
     23008 WT1      7521     TIP3     OH2      OT      -0.834000       15.9994           0
     23009 WT1      7521     TIP3     H1       HT       0.417000        1.0080           0
     23010 WT1      7521     TIP3     H2       HT       0.417000        1.0080           0
     23011 WT1      7522     TIP3     OH2      OT      -0.834000       15.9994           0
     23012 WT1      7522     TIP3     H1       HT       0.417000        1.0080           0
     23013 WT1      7522     TIP3     H2       HT       0.417000        1.0080           0
     23014 WT1      7523     TIP3     OH2      OT      -0.834000       15.9994           0
     23015 WT1      7523     TIP3     H1       HT       0.417000        1.0080           0
     23016 WT1      7523     TIP3     H2       HT       0.417000        1.0080           0
     23017 WT1      7524     TIP3     OH2      OT      -0.834000       15.9994           0
     23018 WT1      7524     TIP3     H1       HT       0.417000        1.0080           0
     23019 WT1      7524     TIP3     H2       HT       0.417000        1.0080           0
     23020 WT1      7525     TIP3     OH2      OT      -0.834000       15.9994           0
     23021 WT1      7525     TIP3     H1       HT       0.417000        1.0080           0
     23022 WT1      7525     TIP3     H2       HT       0.417000        1.0080           0
     23023 WT1      7526     TIP3     OH2      OT      -0.834000       15.9994           0
     23024 WT1      7526     TIP3     H1       HT       0.417000        1.0080           0
     23025 WT1      7526     TIP3     H2       HT       0.417000        1.0080           0
     23026 WT1      7527     TIP3     OH2      OT      -0.834000       15.9994           0
     23027 WT1      7527     TIP3     H1       HT       0.417000        1.0080           0
     23028 WT1      7527     TIP3     H2       HT       0.417000        1.0080           0
     23029 WT1      7529     TIP3     OH2      OT      -0.834000       15.9994           0
     23030 WT1      7529     TIP3     H1       HT       0.417000        1.0080           0
     23031 WT1      7529     TIP3     H2       HT       0.417000        1.0080           0
     23032 WT1      7530     TIP3     OH2      OT      -0.834000       15.9994           0
     23033 WT1      7530     TIP3     H1       HT       0.417000        1.0080           0
     23034 WT1      7530     TIP3     H2       HT       0.417000        1.0080           0
     23035 WT1      7531     TIP3     OH2      OT      -0.834000       15.9994           0
     23036 WT1      7531     TIP3     H1       HT       0.417000        1.0080           0
     23037 WT1      7531     TIP3     H2       HT       0.417000        1.0080           0
     23038 WT1      7532     TIP3     OH2      OT      -0.834000       15.9994           0
     23039 WT1      7532     TIP3     H1       HT       0.417000        1.0080           0
     23040 WT1      7532     TIP3     H2       HT       0.417000        1.0080           0
     23041 WT1      7534     TIP3     OH2      OT      -0.834000       15.9994           0
     23042 WT1      7534     TIP3     H1       HT       0.417000        1.0080           0
     23043 WT1      7534     TIP3     H2       HT       0.417000        1.0080           0
     23044 WT1      7535     TIP3     OH2      OT      -0.834000       15.9994           0
     23045 WT1      7535     TIP3     H1       HT       0.417000        1.0080           0
     23046 WT1      7535     TIP3     H2       HT       0.417000        1.0080           0
     23047 WT1      7536     TIP3     OH2      OT      -0.834000       15.9994           0
     23048 WT1      7536     TIP3     H1       HT       0.417000        1.0080           0
     23049 WT1      7536     TIP3     H2       HT       0.417000        1.0080           0
     23050 WT1      7537     TIP3     OH2      OT      -0.834000       15.9994           0
     23051 WT1      7537     TIP3     H1       HT       0.417000        1.0080           0
     23052 WT1      7537     TIP3     H2       HT       0.417000        1.0080           0
     23053 WT1      7538     TIP3     OH2      OT      -0.834000       15.9994           0
     23054 WT1      7538     TIP3     H1       HT       0.417000        1.0080           0
     23055 WT1      7538     TIP3     H2       HT       0.417000        1.0080           0
     23056 WT1      7539     TIP3     OH2      OT      -0.834000       15.9994           0
     23057 WT1      7539     TIP3     H1       HT       0.417000        1.0080           0
     23058 WT1      7539     TIP3     H2       HT       0.417000        1.0080           0
     23059 WT1      7540     TIP3     OH2      OT      -0.834000       15.9994           0
     23060 WT1      7540     TIP3     H1       HT       0.417000        1.0080           0
     23061 WT1      7540     TIP3     H2       HT       0.417000        1.0080           0
     23062 WT1      7541     TIP3     OH2      OT      -0.834000       15.9994           0
     23063 WT1      7541     TIP3     H1       HT       0.417000        1.0080           0
     23064 WT1      7541     TIP3     H2       HT       0.417000        1.0080           0
     23065 WT1      7542     TIP3     OH2      OT      -0.834000       15.9994           0
     23066 WT1      7542     TIP3     H1       HT       0.417000        1.0080           0
     23067 WT1      7542     TIP3     H2       HT       0.417000        1.0080           0
     23068 WT1      7543     TIP3     OH2      OT      -0.834000       15.9994           0
     23069 WT1      7543     TIP3     H1       HT       0.417000        1.0080           0
     23070 WT1      7543     TIP3     H2       HT       0.417000        1.0080           0
     23071 WT1      7544     TIP3     OH2      OT      -0.834000       15.9994           0
     23072 WT1      7544     TIP3     H1       HT       0.417000        1.0080           0
     23073 WT1      7544     TIP3     H2       HT       0.417000        1.0080           0
     23074 WT1      7545     TIP3     OH2      OT      -0.834000       15.9994           0
     23075 WT1      7545     TIP3     H1       HT       0.417000        1.0080           0
     23076 WT1      7545     TIP3     H2       HT       0.417000        1.0080           0
     23077 WT1      7546     TIP3     OH2      OT      -0.834000       15.9994           0
     23078 WT1      7546     TIP3     H1       HT       0.417000        1.0080           0
     23079 WT1      7546     TIP3     H2       HT       0.417000        1.0080           0
     23080 WT1      7547     TIP3     OH2      OT      -0.834000       15.9994           0
     23081 WT1      7547     TIP3     H1       HT       0.417000        1.0080           0
     23082 WT1      7547     TIP3     H2       HT       0.417000        1.0080           0
     23083 WT1      7548     TIP3     OH2      OT      -0.834000       15.9994           0
     23084 WT1      7548     TIP3     H1       HT       0.417000        1.0080           0
     23085 WT1      7548     TIP3     H2       HT       0.417000        1.0080           0
     23086 WT1      7549     TIP3     OH2      OT      -0.834000       15.9994           0
     23087 WT1      7549     TIP3     H1       HT       0.417000        1.0080           0
     23088 WT1      7549     TIP3     H2       HT       0.417000        1.0080           0
     23089 WT1      7550     TIP3     OH2      OT      -0.834000       15.9994           0
     23090 WT1      7550     TIP3     H1       HT       0.417000        1.0080           0
     23091 WT1      7550     TIP3     H2       HT       0.417000        1.0080           0
     23092 WT1      7551     TIP3     OH2      OT      -0.834000       15.9994           0
     23093 WT1      7551     TIP3     H1       HT       0.417000        1.0080           0
     23094 WT1      7551     TIP3     H2       HT       0.417000        1.0080           0
     23095 WT1      7552     TIP3     OH2      OT      -0.834000       15.9994           0
     23096 WT1      7552     TIP3     H1       HT       0.417000        1.0080           0
     23097 WT1      7552     TIP3     H2       HT       0.417000        1.0080           0
     23098 WT1      7553     TIP3     OH2      OT      -0.834000       15.9994           0
     23099 WT1      7553     TIP3     H1       HT       0.417000        1.0080           0
     23100 WT1      7553     TIP3     H2       HT       0.417000        1.0080           0
     23101 WT1      7554     TIP3     OH2      OT      -0.834000       15.9994           0
     23102 WT1      7554     TIP3     H1       HT       0.417000        1.0080           0
     23103 WT1      7554     TIP3     H2       HT       0.417000        1.0080           0
     23104 WT1      7555     TIP3     OH2      OT      -0.834000       15.9994           0
     23105 WT1      7555     TIP3     H1       HT       0.417000        1.0080           0
     23106 WT1      7555     TIP3     H2       HT       0.417000        1.0080           0
     23107 WT1      7556     TIP3     OH2      OT      -0.834000       15.9994           0
     23108 WT1      7556     TIP3     H1       HT       0.417000        1.0080           0
     23109 WT1      7556     TIP3     H2       HT       0.417000        1.0080           0
     23110 WT1      7557     TIP3     OH2      OT      -0.834000       15.9994           0
     23111 WT1      7557     TIP3     H1       HT       0.417000        1.0080           0
     23112 WT1      7557     TIP3     H2       HT       0.417000        1.0080           0
     23113 WT1      7558     TIP3     OH2      OT      -0.834000       15.9994           0
     23114 WT1      7558     TIP3     H1       HT       0.417000        1.0080           0
     23115 WT1      7558     TIP3     H2       HT       0.417000        1.0080           0
     23116 WT1      7559     TIP3     OH2      OT      -0.834000       15.9994           0
     23117 WT1      7559     TIP3     H1       HT       0.417000        1.0080           0
     23118 WT1      7559     TIP3     H2       HT       0.417000        1.0080           0
     23119 WT1      7560     TIP3     OH2      OT      -0.834000       15.9994           0
     23120 WT1      7560     TIP3     H1       HT       0.417000        1.0080           0
     23121 WT1      7560     TIP3     H2       HT       0.417000        1.0080           0
     23122 WT1      7561     TIP3     OH2      OT      -0.834000       15.9994           0
     23123 WT1      7561     TIP3     H1       HT       0.417000        1.0080           0
     23124 WT1      7561     TIP3     H2       HT       0.417000        1.0080           0
     23125 WT1      7562     TIP3     OH2      OT      -0.834000       15.9994           0
     23126 WT1      7562     TIP3     H1       HT       0.417000        1.0080           0
     23127 WT1      7562     TIP3     H2       HT       0.417000        1.0080           0
     23128 WT1      7563     TIP3     OH2      OT      -0.834000       15.9994           0
     23129 WT1      7563     TIP3     H1       HT       0.417000        1.0080           0
     23130 WT1      7563     TIP3     H2       HT       0.417000        1.0080           0
     23131 WT1      7564     TIP3     OH2      OT      -0.834000       15.9994           0
     23132 WT1      7564     TIP3     H1       HT       0.417000        1.0080           0
     23133 WT1      7564     TIP3     H2       HT       0.417000        1.0080           0
     23134 WT1      7565     TIP3     OH2      OT      -0.834000       15.9994           0
     23135 WT1      7565     TIP3     H1       HT       0.417000        1.0080           0
     23136 WT1      7565     TIP3     H2       HT       0.417000        1.0080           0
     23137 WT1      7566     TIP3     OH2      OT      -0.834000       15.9994           0
     23138 WT1      7566     TIP3     H1       HT       0.417000        1.0080           0
     23139 WT1      7566     TIP3     H2       HT       0.417000        1.0080           0
     23140 WT1      7567     TIP3     OH2      OT      -0.834000       15.9994           0
     23141 WT1      7567     TIP3     H1       HT       0.417000        1.0080           0
     23142 WT1      7567     TIP3     H2       HT       0.417000        1.0080           0
     23143 WT1      7568     TIP3     OH2      OT      -0.834000       15.9994           0
     23144 WT1      7568     TIP3     H1       HT       0.417000        1.0080           0
     23145 WT1      7568     TIP3     H2       HT       0.417000        1.0080           0
     23146 WT1      7569     TIP3     OH2      OT      -0.834000       15.9994           0
     23147 WT1      7569     TIP3     H1       HT       0.417000        1.0080           0
     23148 WT1      7569     TIP3     H2       HT       0.417000        1.0080           0
     23149 WT1      7570     TIP3     OH2      OT      -0.834000       15.9994           0
     23150 WT1      7570     TIP3     H1       HT       0.417000        1.0080           0
     23151 WT1      7570     TIP3     H2       HT       0.417000        1.0080           0
     23152 WT1      7571     TIP3     OH2      OT      -0.834000       15.9994           0
     23153 WT1      7571     TIP3     H1       HT       0.417000        1.0080           0
     23154 WT1      7571     TIP3     H2       HT       0.417000        1.0080           0
     23155 WT1      7572     TIP3     OH2      OT      -0.834000       15.9994           0
     23156 WT1      7572     TIP3     H1       HT       0.417000        1.0080           0
     23157 WT1      7572     TIP3     H2       HT       0.417000        1.0080           0
     23158 WT1      7573     TIP3     OH2      OT      -0.834000       15.9994           0
     23159 WT1      7573     TIP3     H1       HT       0.417000        1.0080           0
     23160 WT1      7573     TIP3     H2       HT       0.417000        1.0080           0
     23161 WT1      7574     TIP3     OH2      OT      -0.834000       15.9994           0
     23162 WT1      7574     TIP3     H1       HT       0.417000        1.0080           0
     23163 WT1      7574     TIP3     H2       HT       0.417000        1.0080           0
     23164 WT1      7575     TIP3     OH2      OT      -0.834000       15.9994           0
     23165 WT1      7575     TIP3     H1       HT       0.417000        1.0080           0
     23166 WT1      7575     TIP3     H2       HT       0.417000        1.0080           0
     23167 WT1      7576     TIP3     OH2      OT      -0.834000       15.9994           0
     23168 WT1      7576     TIP3     H1       HT       0.417000        1.0080           0
     23169 WT1      7576     TIP3     H2       HT       0.417000        1.0080           0
     23170 WT1      7577     TIP3     OH2      OT      -0.834000       15.9994           0
     23171 WT1      7577     TIP3     H1       HT       0.417000        1.0080           0
     23172 WT1      7577     TIP3     H2       HT       0.417000        1.0080           0
     23173 WT1      7578     TIP3     OH2      OT      -0.834000       15.9994           0
     23174 WT1      7578     TIP3     H1       HT       0.417000        1.0080           0
     23175 WT1      7578     TIP3     H2       HT       0.417000        1.0080           0
     23176 WT1      7579     TIP3     OH2      OT      -0.834000       15.9994           0
     23177 WT1      7579     TIP3     H1       HT       0.417000        1.0080           0
     23178 WT1      7579     TIP3     H2       HT       0.417000        1.0080           0
     23179 WT1      7580     TIP3     OH2      OT      -0.834000       15.9994           0
     23180 WT1      7580     TIP3     H1       HT       0.417000        1.0080           0
     23181 WT1      7580     TIP3     H2       HT       0.417000        1.0080           0
     23182 WT1      7581     TIP3     OH2      OT      -0.834000       15.9994           0
     23183 WT1      7581     TIP3     H1       HT       0.417000        1.0080           0
     23184 WT1      7581     TIP3     H2       HT       0.417000        1.0080           0
     23185 WT1      7582     TIP3     OH2      OT      -0.834000       15.9994           0
     23186 WT1      7582     TIP3     H1       HT       0.417000        1.0080           0
     23187 WT1      7582     TIP3     H2       HT       0.417000        1.0080           0
     23188 WT1      7584     TIP3     OH2      OT      -0.834000       15.9994           0
     23189 WT1      7584     TIP3     H1       HT       0.417000        1.0080           0
     23190 WT1      7584     TIP3     H2       HT       0.417000        1.0080           0
     23191 WT1      7585     TIP3     OH2      OT      -0.834000       15.9994           0
     23192 WT1      7585     TIP3     H1       HT       0.417000        1.0080           0
     23193 WT1      7585     TIP3     H2       HT       0.417000        1.0080           0
     23194 WT1      7586     TIP3     OH2      OT      -0.834000       15.9994           0
     23195 WT1      7586     TIP3     H1       HT       0.417000        1.0080           0
     23196 WT1      7586     TIP3     H2       HT       0.417000        1.0080           0
     23197 WT1      7587     TIP3     OH2      OT      -0.834000       15.9994           0
     23198 WT1      7587     TIP3     H1       HT       0.417000        1.0080           0
     23199 WT1      7587     TIP3     H2       HT       0.417000        1.0080           0
     23200 WT1      7588     TIP3     OH2      OT      -0.834000       15.9994           0
     23201 WT1      7588     TIP3     H1       HT       0.417000        1.0080           0
     23202 WT1      7588     TIP3     H2       HT       0.417000        1.0080           0
     23203 WT1      7589     TIP3     OH2      OT      -0.834000       15.9994           0
     23204 WT1      7589     TIP3     H1       HT       0.417000        1.0080           0
     23205 WT1      7589     TIP3     H2       HT       0.417000        1.0080           0
     23206 WT1      7590     TIP3     OH2      OT      -0.834000       15.9994           0
     23207 WT1      7590     TIP3     H1       HT       0.417000        1.0080           0
     23208 WT1      7590     TIP3     H2       HT       0.417000        1.0080           0
     23209 WT1      7591     TIP3     OH2      OT      -0.834000       15.9994           0
     23210 WT1      7591     TIP3     H1       HT       0.417000        1.0080           0
     23211 WT1      7591     TIP3     H2       HT       0.417000        1.0080           0
     23212 WT1      7592     TIP3     OH2      OT      -0.834000       15.9994           0
     23213 WT1      7592     TIP3     H1       HT       0.417000        1.0080           0
     23214 WT1      7592     TIP3     H2       HT       0.417000        1.0080           0
     23215 WT1      7593     TIP3     OH2      OT      -0.834000       15.9994           0
     23216 WT1      7593     TIP3     H1       HT       0.417000        1.0080           0
     23217 WT1      7593     TIP3     H2       HT       0.417000        1.0080           0
     23218 WT1      7594     TIP3     OH2      OT      -0.834000       15.9994           0
     23219 WT1      7594     TIP3     H1       HT       0.417000        1.0080           0
     23220 WT1      7594     TIP3     H2       HT       0.417000        1.0080           0
     23221 WT1      7595     TIP3     OH2      OT      -0.834000       15.9994           0
     23222 WT1      7595     TIP3     H1       HT       0.417000        1.0080           0
     23223 WT1      7595     TIP3     H2       HT       0.417000        1.0080           0
     23224 WT1      7596     TIP3     OH2      OT      -0.834000       15.9994           0
     23225 WT1      7596     TIP3     H1       HT       0.417000        1.0080           0
     23226 WT1      7596     TIP3     H2       HT       0.417000        1.0080           0
     23227 WT1      7597     TIP3     OH2      OT      -0.834000       15.9994           0
     23228 WT1      7597     TIP3     H1       HT       0.417000        1.0080           0
     23229 WT1      7597     TIP3     H2       HT       0.417000        1.0080           0
     23230 WT1      7598     TIP3     OH2      OT      -0.834000       15.9994           0
     23231 WT1      7598     TIP3     H1       HT       0.417000        1.0080           0
     23232 WT1      7598     TIP3     H2       HT       0.417000        1.0080           0
     23233 WT1      7599     TIP3     OH2      OT      -0.834000       15.9994           0
     23234 WT1      7599     TIP3     H1       HT       0.417000        1.0080           0
     23235 WT1      7599     TIP3     H2       HT       0.417000        1.0080           0
     23236 WT1      7600     TIP3     OH2      OT      -0.834000       15.9994           0
     23237 WT1      7600     TIP3     H1       HT       0.417000        1.0080           0
     23238 WT1      7600     TIP3     H2       HT       0.417000        1.0080           0
     23239 WT1      7601     TIP3     OH2      OT      -0.834000       15.9994           0
     23240 WT1      7601     TIP3     H1       HT       0.417000        1.0080           0
     23241 WT1      7601     TIP3     H2       HT       0.417000        1.0080           0
     23242 WT1      7602     TIP3     OH2      OT      -0.834000       15.9994           0
     23243 WT1      7602     TIP3     H1       HT       0.417000        1.0080           0
     23244 WT1      7602     TIP3     H2       HT       0.417000        1.0080           0
     23245 WT1      7603     TIP3     OH2      OT      -0.834000       15.9994           0
     23246 WT1      7603     TIP3     H1       HT       0.417000        1.0080           0
     23247 WT1      7603     TIP3     H2       HT       0.417000        1.0080           0
     23248 WT1      7604     TIP3     OH2      OT      -0.834000       15.9994           0
     23249 WT1      7604     TIP3     H1       HT       0.417000        1.0080           0
     23250 WT1      7604     TIP3     H2       HT       0.417000        1.0080           0
     23251 WT1      7605     TIP3     OH2      OT      -0.834000       15.9994           0
     23252 WT1      7605     TIP3     H1       HT       0.417000        1.0080           0
     23253 WT1      7605     TIP3     H2       HT       0.417000        1.0080           0
     23254 WT1      7606     TIP3     OH2      OT      -0.834000       15.9994           0
     23255 WT1      7606     TIP3     H1       HT       0.417000        1.0080           0
     23256 WT1      7606     TIP3     H2       HT       0.417000        1.0080           0
     23257 WT1      7608     TIP3     OH2      OT      -0.834000       15.9994           0
     23258 WT1      7608     TIP3     H1       HT       0.417000        1.0080           0
     23259 WT1      7608     TIP3     H2       HT       0.417000        1.0080           0
     23260 WT1      7609     TIP3     OH2      OT      -0.834000       15.9994           0
     23261 WT1      7609     TIP3     H1       HT       0.417000        1.0080           0
     23262 WT1      7609     TIP3     H2       HT       0.417000        1.0080           0
     23263 WT1      7610     TIP3     OH2      OT      -0.834000       15.9994           0
     23264 WT1      7610     TIP3     H1       HT       0.417000        1.0080           0
     23265 WT1      7610     TIP3     H2       HT       0.417000        1.0080           0
     23266 WT1      7611     TIP3     OH2      OT      -0.834000       15.9994           0
     23267 WT1      7611     TIP3     H1       HT       0.417000        1.0080           0
     23268 WT1      7611     TIP3     H2       HT       0.417000        1.0080           0
     23269 WT1      7612     TIP3     OH2      OT      -0.834000       15.9994           0
     23270 WT1      7612     TIP3     H1       HT       0.417000        1.0080           0
     23271 WT1      7612     TIP3     H2       HT       0.417000        1.0080           0
     23272 WT1      7613     TIP3     OH2      OT      -0.834000       15.9994           0
     23273 WT1      7613     TIP3     H1       HT       0.417000        1.0080           0
     23274 WT1      7613     TIP3     H2       HT       0.417000        1.0080           0
     23275 WT1      7614     TIP3     OH2      OT      -0.834000       15.9994           0
     23276 WT1      7614     TIP3     H1       HT       0.417000        1.0080           0
     23277 WT1      7614     TIP3     H2       HT       0.417000        1.0080           0
     23278 WT1      7615     TIP3     OH2      OT      -0.834000       15.9994           0
     23279 WT1      7615     TIP3     H1       HT       0.417000        1.0080           0
     23280 WT1      7615     TIP3     H2       HT       0.417000        1.0080           0
     23281 WT1      7616     TIP3     OH2      OT      -0.834000       15.9994           0
     23282 WT1      7616     TIP3     H1       HT       0.417000        1.0080           0
     23283 WT1      7616     TIP3     H2       HT       0.417000        1.0080           0
     23284 WT1      7617     TIP3     OH2      OT      -0.834000       15.9994           0
     23285 WT1      7617     TIP3     H1       HT       0.417000        1.0080           0
     23286 WT1      7617     TIP3     H2       HT       0.417000        1.0080           0
     23287 WT1      7618     TIP3     OH2      OT      -0.834000       15.9994           0
     23288 WT1      7618     TIP3     H1       HT       0.417000        1.0080           0
     23289 WT1      7618     TIP3     H2       HT       0.417000        1.0080           0
     23290 WT1      7619     TIP3     OH2      OT      -0.834000       15.9994           0
     23291 WT1      7619     TIP3     H1       HT       0.417000        1.0080           0
     23292 WT1      7619     TIP3     H2       HT       0.417000        1.0080           0
     23293 WT1      7620     TIP3     OH2      OT      -0.834000       15.9994           0
     23294 WT1      7620     TIP3     H1       HT       0.417000        1.0080           0
     23295 WT1      7620     TIP3     H2       HT       0.417000        1.0080           0
     23296 WT1      7621     TIP3     OH2      OT      -0.834000       15.9994           0
     23297 WT1      7621     TIP3     H1       HT       0.417000        1.0080           0
     23298 WT1      7621     TIP3     H2       HT       0.417000        1.0080           0
     23299 WT1      7622     TIP3     OH2      OT      -0.834000       15.9994           0
     23300 WT1      7622     TIP3     H1       HT       0.417000        1.0080           0
     23301 WT1      7622     TIP3     H2       HT       0.417000        1.0080           0
     23302 WT1      7623     TIP3     OH2      OT      -0.834000       15.9994           0
     23303 WT1      7623     TIP3     H1       HT       0.417000        1.0080           0
     23304 WT1      7623     TIP3     H2       HT       0.417000        1.0080           0
     23305 WT1      7624     TIP3     OH2      OT      -0.834000       15.9994           0
     23306 WT1      7624     TIP3     H1       HT       0.417000        1.0080           0
     23307 WT1      7624     TIP3     H2       HT       0.417000        1.0080           0
     23308 WT1      7625     TIP3     OH2      OT      -0.834000       15.9994           0
     23309 WT1      7625     TIP3     H1       HT       0.417000        1.0080           0
     23310 WT1      7625     TIP3     H2       HT       0.417000        1.0080           0
     23311 WT1      7626     TIP3     OH2      OT      -0.834000       15.9994           0
     23312 WT1      7626     TIP3     H1       HT       0.417000        1.0080           0
     23313 WT1      7626     TIP3     H2       HT       0.417000        1.0080           0
     23314 WT1      7627     TIP3     OH2      OT      -0.834000       15.9994           0
     23315 WT1      7627     TIP3     H1       HT       0.417000        1.0080           0
     23316 WT1      7627     TIP3     H2       HT       0.417000        1.0080           0
     23317 WT1      7628     TIP3     OH2      OT      -0.834000       15.9994           0
     23318 WT1      7628     TIP3     H1       HT       0.417000        1.0080           0
     23319 WT1      7628     TIP3     H2       HT       0.417000        1.0080           0
     23320 WT1      7630     TIP3     OH2      OT      -0.834000       15.9994           0
     23321 WT1      7630     TIP3     H1       HT       0.417000        1.0080           0
     23322 WT1      7630     TIP3     H2       HT       0.417000        1.0080           0
     23323 WT1      7631     TIP3     OH2      OT      -0.834000       15.9994           0
     23324 WT1      7631     TIP3     H1       HT       0.417000        1.0080           0
     23325 WT1      7631     TIP3     H2       HT       0.417000        1.0080           0
     23326 WT1      7632     TIP3     OH2      OT      -0.834000       15.9994           0
     23327 WT1      7632     TIP3     H1       HT       0.417000        1.0080           0
     23328 WT1      7632     TIP3     H2       HT       0.417000        1.0080           0
     23329 WT1      7633     TIP3     OH2      OT      -0.834000       15.9994           0
     23330 WT1      7633     TIP3     H1       HT       0.417000        1.0080           0
     23331 WT1      7633     TIP3     H2       HT       0.417000        1.0080           0
     23332 WT1      7634     TIP3     OH2      OT      -0.834000       15.9994           0
     23333 WT1      7634     TIP3     H1       HT       0.417000        1.0080           0
     23334 WT1      7634     TIP3     H2       HT       0.417000        1.0080           0
     23335 WT1      7635     TIP3     OH2      OT      -0.834000       15.9994           0
     23336 WT1      7635     TIP3     H1       HT       0.417000        1.0080           0
     23337 WT1      7635     TIP3     H2       HT       0.417000        1.0080           0
     23338 WT1      7636     TIP3     OH2      OT      -0.834000       15.9994           0
     23339 WT1      7636     TIP3     H1       HT       0.417000        1.0080           0
     23340 WT1      7636     TIP3     H2       HT       0.417000        1.0080           0
     23341 WT1      7637     TIP3     OH2      OT      -0.834000       15.9994           0
     23342 WT1      7637     TIP3     H1       HT       0.417000        1.0080           0
     23343 WT1      7637     TIP3     H2       HT       0.417000        1.0080           0
     23344 WT1      7638     TIP3     OH2      OT      -0.834000       15.9994           0
     23345 WT1      7638     TIP3     H1       HT       0.417000        1.0080           0
     23346 WT1      7638     TIP3     H2       HT       0.417000        1.0080           0
     23347 WT1      7639     TIP3     OH2      OT      -0.834000       15.9994           0
     23348 WT1      7639     TIP3     H1       HT       0.417000        1.0080           0
     23349 WT1      7639     TIP3     H2       HT       0.417000        1.0080           0
     23350 WT1      7640     TIP3     OH2      OT      -0.834000       15.9994           0
     23351 WT1      7640     TIP3     H1       HT       0.417000        1.0080           0
     23352 WT1      7640     TIP3     H2       HT       0.417000        1.0080           0
     23353 WT1      7641     TIP3     OH2      OT      -0.834000       15.9994           0
     23354 WT1      7641     TIP3     H1       HT       0.417000        1.0080           0
     23355 WT1      7641     TIP3     H2       HT       0.417000        1.0080           0
     23356 WT1      7642     TIP3     OH2      OT      -0.834000       15.9994           0
     23357 WT1      7642     TIP3     H1       HT       0.417000        1.0080           0
     23358 WT1      7642     TIP3     H2       HT       0.417000        1.0080           0
     23359 WT1      7643     TIP3     OH2      OT      -0.834000       15.9994           0
     23360 WT1      7643     TIP3     H1       HT       0.417000        1.0080           0
     23361 WT1      7643     TIP3     H2       HT       0.417000        1.0080           0
     23362 WT1      7644     TIP3     OH2      OT      -0.834000       15.9994           0
     23363 WT1      7644     TIP3     H1       HT       0.417000        1.0080           0
     23364 WT1      7644     TIP3     H2       HT       0.417000        1.0080           0
     23365 WT1      7645     TIP3     OH2      OT      -0.834000       15.9994           0
     23366 WT1      7645     TIP3     H1       HT       0.417000        1.0080           0
     23367 WT1      7645     TIP3     H2       HT       0.417000        1.0080           0
     23368 WT1      7646     TIP3     OH2      OT      -0.834000       15.9994           0
     23369 WT1      7646     TIP3     H1       HT       0.417000        1.0080           0
     23370 WT1      7646     TIP3     H2       HT       0.417000        1.0080           0
     23371 WT1      7647     TIP3     OH2      OT      -0.834000       15.9994           0
     23372 WT1      7647     TIP3     H1       HT       0.417000        1.0080           0
     23373 WT1      7647     TIP3     H2       HT       0.417000        1.0080           0
     23374 WT1      7648     TIP3     OH2      OT      -0.834000       15.9994           0
     23375 WT1      7648     TIP3     H1       HT       0.417000        1.0080           0
     23376 WT1      7648     TIP3     H2       HT       0.417000        1.0080           0
     23377 WT1      7649     TIP3     OH2      OT      -0.834000       15.9994           0
     23378 WT1      7649     TIP3     H1       HT       0.417000        1.0080           0
     23379 WT1      7649     TIP3     H2       HT       0.417000        1.0080           0
     23380 WT1      7650     TIP3     OH2      OT      -0.834000       15.9994           0
     23381 WT1      7650     TIP3     H1       HT       0.417000        1.0080           0
     23382 WT1      7650     TIP3     H2       HT       0.417000        1.0080           0
     23383 WT1      7651     TIP3     OH2      OT      -0.834000       15.9994           0
     23384 WT1      7651     TIP3     H1       HT       0.417000        1.0080           0
     23385 WT1      7651     TIP3     H2       HT       0.417000        1.0080           0
     23386 WT1      7652     TIP3     OH2      OT      -0.834000       15.9994           0
     23387 WT1      7652     TIP3     H1       HT       0.417000        1.0080           0
     23388 WT1      7652     TIP3     H2       HT       0.417000        1.0080           0
     23389 WT1      7653     TIP3     OH2      OT      -0.834000       15.9994           0
     23390 WT1      7653     TIP3     H1       HT       0.417000        1.0080           0
     23391 WT1      7653     TIP3     H2       HT       0.417000        1.0080           0
     23392 WT1      7654     TIP3     OH2      OT      -0.834000       15.9994           0
     23393 WT1      7654     TIP3     H1       HT       0.417000        1.0080           0
     23394 WT1      7654     TIP3     H2       HT       0.417000        1.0080           0
     23395 WT1      7655     TIP3     OH2      OT      -0.834000       15.9994           0
     23396 WT1      7655     TIP3     H1       HT       0.417000        1.0080           0
     23397 WT1      7655     TIP3     H2       HT       0.417000        1.0080           0
     23398 WT1      7656     TIP3     OH2      OT      -0.834000       15.9994           0
     23399 WT1      7656     TIP3     H1       HT       0.417000        1.0080           0
     23400 WT1      7656     TIP3     H2       HT       0.417000        1.0080           0
     23401 WT1      7657     TIP3     OH2      OT      -0.834000       15.9994           0
     23402 WT1      7657     TIP3     H1       HT       0.417000        1.0080           0
     23403 WT1      7657     TIP3     H2       HT       0.417000        1.0080           0
     23404 WT1      7658     TIP3     OH2      OT      -0.834000       15.9994           0
     23405 WT1      7658     TIP3     H1       HT       0.417000        1.0080           0
     23406 WT1      7658     TIP3     H2       HT       0.417000        1.0080           0
     23407 WT1      7659     TIP3     OH2      OT      -0.834000       15.9994           0
     23408 WT1      7659     TIP3     H1       HT       0.417000        1.0080           0
     23409 WT1      7659     TIP3     H2       HT       0.417000        1.0080           0
     23410 WT1      7660     TIP3     OH2      OT      -0.834000       15.9994           0
     23411 WT1      7660     TIP3     H1       HT       0.417000        1.0080           0
     23412 WT1      7660     TIP3     H2       HT       0.417000        1.0080           0
     23413 WT1      7661     TIP3     OH2      OT      -0.834000       15.9994           0
     23414 WT1      7661     TIP3     H1       HT       0.417000        1.0080           0
     23415 WT1      7661     TIP3     H2       HT       0.417000        1.0080           0
     23416 WT1      7662     TIP3     OH2      OT      -0.834000       15.9994           0
     23417 WT1      7662     TIP3     H1       HT       0.417000        1.0080           0
     23418 WT1      7662     TIP3     H2       HT       0.417000        1.0080           0
     23419 WT1      7663     TIP3     OH2      OT      -0.834000       15.9994           0
     23420 WT1      7663     TIP3     H1       HT       0.417000        1.0080           0
     23421 WT1      7663     TIP3     H2       HT       0.417000        1.0080           0
     23422 WT1      7664     TIP3     OH2      OT      -0.834000       15.9994           0
     23423 WT1      7664     TIP3     H1       HT       0.417000        1.0080           0
     23424 WT1      7664     TIP3     H2       HT       0.417000        1.0080           0
     23425 WT1      7665     TIP3     OH2      OT      -0.834000       15.9994           0
     23426 WT1      7665     TIP3     H1       HT       0.417000        1.0080           0
     23427 WT1      7665     TIP3     H2       HT       0.417000        1.0080           0
     23428 WT1      7666     TIP3     OH2      OT      -0.834000       15.9994           0
     23429 WT1      7666     TIP3     H1       HT       0.417000        1.0080           0
     23430 WT1      7666     TIP3     H2       HT       0.417000        1.0080           0
     23431 WT1      7667     TIP3     OH2      OT      -0.834000       15.9994           0
     23432 WT1      7667     TIP3     H1       HT       0.417000        1.0080           0
     23433 WT1      7667     TIP3     H2       HT       0.417000        1.0080           0
     23434 WT1      7668     TIP3     OH2      OT      -0.834000       15.9994           0
     23435 WT1      7668     TIP3     H1       HT       0.417000        1.0080           0
     23436 WT1      7668     TIP3     H2       HT       0.417000        1.0080           0
     23437 WT1      7669     TIP3     OH2      OT      -0.834000       15.9994           0
     23438 WT1      7669     TIP3     H1       HT       0.417000        1.0080           0
     23439 WT1      7669     TIP3     H2       HT       0.417000        1.0080           0
     23440 WT1      7670     TIP3     OH2      OT      -0.834000       15.9994           0
     23441 WT1      7670     TIP3     H1       HT       0.417000        1.0080           0
     23442 WT1      7670     TIP3     H2       HT       0.417000        1.0080           0
     23443 WT1      7671     TIP3     OH2      OT      -0.834000       15.9994           0
     23444 WT1      7671     TIP3     H1       HT       0.417000        1.0080           0
     23445 WT1      7671     TIP3     H2       HT       0.417000        1.0080           0
     23446 WT1      7672     TIP3     OH2      OT      -0.834000       15.9994           0
     23447 WT1      7672     TIP3     H1       HT       0.417000        1.0080           0
     23448 WT1      7672     TIP3     H2       HT       0.417000        1.0080           0
     23449 WT1      7673     TIP3     OH2      OT      -0.834000       15.9994           0
     23450 WT1      7673     TIP3     H1       HT       0.417000        1.0080           0
     23451 WT1      7673     TIP3     H2       HT       0.417000        1.0080           0
     23452 WT1      7674     TIP3     OH2      OT      -0.834000       15.9994           0
     23453 WT1      7674     TIP3     H1       HT       0.417000        1.0080           0
     23454 WT1      7674     TIP3     H2       HT       0.417000        1.0080           0
     23455 WT1      7675     TIP3     OH2      OT      -0.834000       15.9994           0
     23456 WT1      7675     TIP3     H1       HT       0.417000        1.0080           0
     23457 WT1      7675     TIP3     H2       HT       0.417000        1.0080           0
     23458 WT1      7676     TIP3     OH2      OT      -0.834000       15.9994           0
     23459 WT1      7676     TIP3     H1       HT       0.417000        1.0080           0
     23460 WT1      7676     TIP3     H2       HT       0.417000        1.0080           0
     23461 WT1      7677     TIP3     OH2      OT      -0.834000       15.9994           0
     23462 WT1      7677     TIP3     H1       HT       0.417000        1.0080           0
     23463 WT1      7677     TIP3     H2       HT       0.417000        1.0080           0
     23464 WT1      7678     TIP3     OH2      OT      -0.834000       15.9994           0
     23465 WT1      7678     TIP3     H1       HT       0.417000        1.0080           0
     23466 WT1      7678     TIP3     H2       HT       0.417000        1.0080           0
     23467 WT1      7679     TIP3     OH2      OT      -0.834000       15.9994           0
     23468 WT1      7679     TIP3     H1       HT       0.417000        1.0080           0
     23469 WT1      7679     TIP3     H2       HT       0.417000        1.0080           0
     23470 WT1      7680     TIP3     OH2      OT      -0.834000       15.9994           0
     23471 WT1      7680     TIP3     H1       HT       0.417000        1.0080           0
     23472 WT1      7680     TIP3     H2       HT       0.417000        1.0080           0
     23473 WT1      7681     TIP3     OH2      OT      -0.834000       15.9994           0
     23474 WT1      7681     TIP3     H1       HT       0.417000        1.0080           0
     23475 WT1      7681     TIP3     H2       HT       0.417000        1.0080           0
     23476 WT1      7682     TIP3     OH2      OT      -0.834000       15.9994           0
     23477 WT1      7682     TIP3     H1       HT       0.417000        1.0080           0
     23478 WT1      7682     TIP3     H2       HT       0.417000        1.0080           0
     23479 WT1      7683     TIP3     OH2      OT      -0.834000       15.9994           0
     23480 WT1      7683     TIP3     H1       HT       0.417000        1.0080           0
     23481 WT1      7683     TIP3     H2       HT       0.417000        1.0080           0
     23482 WT1      7684     TIP3     OH2      OT      -0.834000       15.9994           0
     23483 WT1      7684     TIP3     H1       HT       0.417000        1.0080           0
     23484 WT1      7684     TIP3     H2       HT       0.417000        1.0080           0
     23485 WT1      7685     TIP3     OH2      OT      -0.834000       15.9994           0
     23486 WT1      7685     TIP3     H1       HT       0.417000        1.0080           0
     23487 WT1      7685     TIP3     H2       HT       0.417000        1.0080           0
     23488 WT1      7686     TIP3     OH2      OT      -0.834000       15.9994           0
     23489 WT1      7686     TIP3     H1       HT       0.417000        1.0080           0
     23490 WT1      7686     TIP3     H2       HT       0.417000        1.0080           0
     23491 WT1      7687     TIP3     OH2      OT      -0.834000       15.9994           0
     23492 WT1      7687     TIP3     H1       HT       0.417000        1.0080           0
     23493 WT1      7687     TIP3     H2       HT       0.417000        1.0080           0
     23494 WT1      7688     TIP3     OH2      OT      -0.834000       15.9994           0
     23495 WT1      7688     TIP3     H1       HT       0.417000        1.0080           0
     23496 WT1      7688     TIP3     H2       HT       0.417000        1.0080           0
     23497 WT1      7689     TIP3     OH2      OT      -0.834000       15.9994           0
     23498 WT1      7689     TIP3     H1       HT       0.417000        1.0080           0
     23499 WT1      7689     TIP3     H2       HT       0.417000        1.0080           0
     23500 WT1      7690     TIP3     OH2      OT      -0.834000       15.9994           0
     23501 WT1      7690     TIP3     H1       HT       0.417000        1.0080           0
     23502 WT1      7690     TIP3     H2       HT       0.417000        1.0080           0
     23503 WT1      7691     TIP3     OH2      OT      -0.834000       15.9994           0
     23504 WT1      7691     TIP3     H1       HT       0.417000        1.0080           0
     23505 WT1      7691     TIP3     H2       HT       0.417000        1.0080           0
     23506 WT1      7692     TIP3     OH2      OT      -0.834000       15.9994           0
     23507 WT1      7692     TIP3     H1       HT       0.417000        1.0080           0
     23508 WT1      7692     TIP3     H2       HT       0.417000        1.0080           0
     23509 WT1      7693     TIP3     OH2      OT      -0.834000       15.9994           0
     23510 WT1      7693     TIP3     H1       HT       0.417000        1.0080           0
     23511 WT1      7693     TIP3     H2       HT       0.417000        1.0080           0
     23512 WT1      7694     TIP3     OH2      OT      -0.834000       15.9994           0
     23513 WT1      7694     TIP3     H1       HT       0.417000        1.0080           0
     23514 WT1      7694     TIP3     H2       HT       0.417000        1.0080           0
     23515 WT1      7695     TIP3     OH2      OT      -0.834000       15.9994           0
     23516 WT1      7695     TIP3     H1       HT       0.417000        1.0080           0
     23517 WT1      7695     TIP3     H2       HT       0.417000        1.0080           0
     23518 WT1      7696     TIP3     OH2      OT      -0.834000       15.9994           0
     23519 WT1      7696     TIP3     H1       HT       0.417000        1.0080           0
     23520 WT1      7696     TIP3     H2       HT       0.417000        1.0080           0
     23521 WT1      7697     TIP3     OH2      OT      -0.834000       15.9994           0
     23522 WT1      7697     TIP3     H1       HT       0.417000        1.0080           0
     23523 WT1      7697     TIP3     H2       HT       0.417000        1.0080           0
     23524 WT1      7698     TIP3     OH2      OT      -0.834000       15.9994           0
     23525 WT1      7698     TIP3     H1       HT       0.417000        1.0080           0
     23526 WT1      7698     TIP3     H2       HT       0.417000        1.0080           0
     23527 WT1      7699     TIP3     OH2      OT      -0.834000       15.9994           0
     23528 WT1      7699     TIP3     H1       HT       0.417000        1.0080           0
     23529 WT1      7699     TIP3     H2       HT       0.417000        1.0080           0
     23530 WT1      7700     TIP3     OH2      OT      -0.834000       15.9994           0
     23531 WT1      7700     TIP3     H1       HT       0.417000        1.0080           0
     23532 WT1      7700     TIP3     H2       HT       0.417000        1.0080           0
     23533 WT1      7701     TIP3     OH2      OT      -0.834000       15.9994           0
     23534 WT1      7701     TIP3     H1       HT       0.417000        1.0080           0
     23535 WT1      7701     TIP3     H2       HT       0.417000        1.0080           0
     23536 WT1      7702     TIP3     OH2      OT      -0.834000       15.9994           0
     23537 WT1      7702     TIP3     H1       HT       0.417000        1.0080           0
     23538 WT1      7702     TIP3     H2       HT       0.417000        1.0080           0
     23539 WT1      7703     TIP3     OH2      OT      -0.834000       15.9994           0
     23540 WT1      7703     TIP3     H1       HT       0.417000        1.0080           0
     23541 WT1      7703     TIP3     H2       HT       0.417000        1.0080           0
     23542 WT1      7704     TIP3     OH2      OT      -0.834000       15.9994           0
     23543 WT1      7704     TIP3     H1       HT       0.417000        1.0080           0
     23544 WT1      7704     TIP3     H2       HT       0.417000        1.0080           0
     23545 WT1      7705     TIP3     OH2      OT      -0.834000       15.9994           0
     23546 WT1      7705     TIP3     H1       HT       0.417000        1.0080           0
     23547 WT1      7705     TIP3     H2       HT       0.417000        1.0080           0
     23548 WT1      7706     TIP3     OH2      OT      -0.834000       15.9994           0
     23549 WT1      7706     TIP3     H1       HT       0.417000        1.0080           0
     23550 WT1      7706     TIP3     H2       HT       0.417000        1.0080           0
     23551 WT1      7707     TIP3     OH2      OT      -0.834000       15.9994           0
     23552 WT1      7707     TIP3     H1       HT       0.417000        1.0080           0
     23553 WT1      7707     TIP3     H2       HT       0.417000        1.0080           0
     23554 WT1      7708     TIP3     OH2      OT      -0.834000       15.9994           0
     23555 WT1      7708     TIP3     H1       HT       0.417000        1.0080           0
     23556 WT1      7708     TIP3     H2       HT       0.417000        1.0080           0
     23557 WT1      7709     TIP3     OH2      OT      -0.834000       15.9994           0
     23558 WT1      7709     TIP3     H1       HT       0.417000        1.0080           0
     23559 WT1      7709     TIP3     H2       HT       0.417000        1.0080           0
     23560 WT1      7710     TIP3     OH2      OT      -0.834000       15.9994           0
     23561 WT1      7710     TIP3     H1       HT       0.417000        1.0080           0
     23562 WT1      7710     TIP3     H2       HT       0.417000        1.0080           0
     23563 WT1      7711     TIP3     OH2      OT      -0.834000       15.9994           0
     23564 WT1      7711     TIP3     H1       HT       0.417000        1.0080           0
     23565 WT1      7711     TIP3     H2       HT       0.417000        1.0080           0
     23566 WT1      7712     TIP3     OH2      OT      -0.834000       15.9994           0
     23567 WT1      7712     TIP3     H1       HT       0.417000        1.0080           0
     23568 WT1      7712     TIP3     H2       HT       0.417000        1.0080           0
     23569 WT1      7713     TIP3     OH2      OT      -0.834000       15.9994           0
     23570 WT1      7713     TIP3     H1       HT       0.417000        1.0080           0
     23571 WT1      7713     TIP3     H2       HT       0.417000        1.0080           0
     23572 WT1      7714     TIP3     OH2      OT      -0.834000       15.9994           0
     23573 WT1      7714     TIP3     H1       HT       0.417000        1.0080           0
     23574 WT1      7714     TIP3     H2       HT       0.417000        1.0080           0
     23575 WT1      7715     TIP3     OH2      OT      -0.834000       15.9994           0
     23576 WT1      7715     TIP3     H1       HT       0.417000        1.0080           0
     23577 WT1      7715     TIP3     H2       HT       0.417000        1.0080           0
     23578 WT1      7716     TIP3     OH2      OT      -0.834000       15.9994           0
     23579 WT1      7716     TIP3     H1       HT       0.417000        1.0080           0
     23580 WT1      7716     TIP3     H2       HT       0.417000        1.0080           0
     23581 WT1      7717     TIP3     OH2      OT      -0.834000       15.9994           0
     23582 WT1      7717     TIP3     H1       HT       0.417000        1.0080           0
     23583 WT1      7717     TIP3     H2       HT       0.417000        1.0080           0
     23584 WT1      7718     TIP3     OH2      OT      -0.834000       15.9994           0
     23585 WT1      7718     TIP3     H1       HT       0.417000        1.0080           0
     23586 WT1      7718     TIP3     H2       HT       0.417000        1.0080           0
     23587 WT1      7719     TIP3     OH2      OT      -0.834000       15.9994           0
     23588 WT1      7719     TIP3     H1       HT       0.417000        1.0080           0
     23589 WT1      7719     TIP3     H2       HT       0.417000        1.0080           0
     23590 WT1      7720     TIP3     OH2      OT      -0.834000       15.9994           0
     23591 WT1      7720     TIP3     H1       HT       0.417000        1.0080           0
     23592 WT1      7720     TIP3     H2       HT       0.417000        1.0080           0
     23593 WT1      7721     TIP3     OH2      OT      -0.834000       15.9994           0
     23594 WT1      7721     TIP3     H1       HT       0.417000        1.0080           0
     23595 WT1      7721     TIP3     H2       HT       0.417000        1.0080           0
     23596 WT1      7722     TIP3     OH2      OT      -0.834000       15.9994           0
     23597 WT1      7722     TIP3     H1       HT       0.417000        1.0080           0
     23598 WT1      7722     TIP3     H2       HT       0.417000        1.0080           0
     23599 WT1      7723     TIP3     OH2      OT      -0.834000       15.9994           0
     23600 WT1      7723     TIP3     H1       HT       0.417000        1.0080           0
     23601 WT1      7723     TIP3     H2       HT       0.417000        1.0080           0
     23602 WT1      7724     TIP3     OH2      OT      -0.834000       15.9994           0
     23603 WT1      7724     TIP3     H1       HT       0.417000        1.0080           0
     23604 WT1      7724     TIP3     H2       HT       0.417000        1.0080           0
     23605 WT1      7725     TIP3     OH2      OT      -0.834000       15.9994           0
     23606 WT1      7725     TIP3     H1       HT       0.417000        1.0080           0
     23607 WT1      7725     TIP3     H2       HT       0.417000        1.0080           0
     23608 WT1      7726     TIP3     OH2      OT      -0.834000       15.9994           0
     23609 WT1      7726     TIP3     H1       HT       0.417000        1.0080           0
     23610 WT1      7726     TIP3     H2       HT       0.417000        1.0080           0
     23611 WT1      7727     TIP3     OH2      OT      -0.834000       15.9994           0
     23612 WT1      7727     TIP3     H1       HT       0.417000        1.0080           0
     23613 WT1      7727     TIP3     H2       HT       0.417000        1.0080           0
     23614 WT1      7728     TIP3     OH2      OT      -0.834000       15.9994           0
     23615 WT1      7728     TIP3     H1       HT       0.417000        1.0080           0
     23616 WT1      7728     TIP3     H2       HT       0.417000        1.0080           0
     23617 WT1      7729     TIP3     OH2      OT      -0.834000       15.9994           0
     23618 WT1      7729     TIP3     H1       HT       0.417000        1.0080           0
     23619 WT1      7729     TIP3     H2       HT       0.417000        1.0080           0
     23620 WT1      7730     TIP3     OH2      OT      -0.834000       15.9994           0
     23621 WT1      7730     TIP3     H1       HT       0.417000        1.0080           0
     23622 WT1      7730     TIP3     H2       HT       0.417000        1.0080           0
     23623 WT1      7731     TIP3     OH2      OT      -0.834000       15.9994           0
     23624 WT1      7731     TIP3     H1       HT       0.417000        1.0080           0
     23625 WT1      7731     TIP3     H2       HT       0.417000        1.0080           0
     23626 WT1      7732     TIP3     OH2      OT      -0.834000       15.9994           0
     23627 WT1      7732     TIP3     H1       HT       0.417000        1.0080           0
     23628 WT1      7732     TIP3     H2       HT       0.417000        1.0080           0
     23629 WT1      7733     TIP3     OH2      OT      -0.834000       15.9994           0
     23630 WT1      7733     TIP3     H1       HT       0.417000        1.0080           0
     23631 WT1      7733     TIP3     H2       HT       0.417000        1.0080           0
     23632 WT1      7734     TIP3     OH2      OT      -0.834000       15.9994           0
     23633 WT1      7734     TIP3     H1       HT       0.417000        1.0080           0
     23634 WT1      7734     TIP3     H2       HT       0.417000        1.0080           0
     23635 WT1      7735     TIP3     OH2      OT      -0.834000       15.9994           0
     23636 WT1      7735     TIP3     H1       HT       0.417000        1.0080           0
     23637 WT1      7735     TIP3     H2       HT       0.417000        1.0080           0
     23638 WT1      7736     TIP3     OH2      OT      -0.834000       15.9994           0
     23639 WT1      7736     TIP3     H1       HT       0.417000        1.0080           0
     23640 WT1      7736     TIP3     H2       HT       0.417000        1.0080           0
     23641 WT1      7737     TIP3     OH2      OT      -0.834000       15.9994           0
     23642 WT1      7737     TIP3     H1       HT       0.417000        1.0080           0
     23643 WT1      7737     TIP3     H2       HT       0.417000        1.0080           0
     23644 WT1      7738     TIP3     OH2      OT      -0.834000       15.9994           0
     23645 WT1      7738     TIP3     H1       HT       0.417000        1.0080           0
     23646 WT1      7738     TIP3     H2       HT       0.417000        1.0080           0
     23647 WT1      7739     TIP3     OH2      OT      -0.834000       15.9994           0
     23648 WT1      7739     TIP3     H1       HT       0.417000        1.0080           0
     23649 WT1      7739     TIP3     H2       HT       0.417000        1.0080           0
     23650 WT1      7740     TIP3     OH2      OT      -0.834000       15.9994           0
     23651 WT1      7740     TIP3     H1       HT       0.417000        1.0080           0
     23652 WT1      7740     TIP3     H2       HT       0.417000        1.0080           0
     23653 WT1      7741     TIP3     OH2      OT      -0.834000       15.9994           0
     23654 WT1      7741     TIP3     H1       HT       0.417000        1.0080           0
     23655 WT1      7741     TIP3     H2       HT       0.417000        1.0080           0
     23656 WT1      7742     TIP3     OH2      OT      -0.834000       15.9994           0
     23657 WT1      7742     TIP3     H1       HT       0.417000        1.0080           0
     23658 WT1      7742     TIP3     H2       HT       0.417000        1.0080           0
     23659 WT1      7743     TIP3     OH2      OT      -0.834000       15.9994           0
     23660 WT1      7743     TIP3     H1       HT       0.417000        1.0080           0
     23661 WT1      7743     TIP3     H2       HT       0.417000        1.0080           0
     23662 WT1      7744     TIP3     OH2      OT      -0.834000       15.9994           0
     23663 WT1      7744     TIP3     H1       HT       0.417000        1.0080           0
     23664 WT1      7744     TIP3     H2       HT       0.417000        1.0080           0
     23665 WT1      7745     TIP3     OH2      OT      -0.834000       15.9994           0
     23666 WT1      7745     TIP3     H1       HT       0.417000        1.0080           0
     23667 WT1      7745     TIP3     H2       HT       0.417000        1.0080           0
     23668 WT1      7746     TIP3     OH2      OT      -0.834000       15.9994           0
     23669 WT1      7746     TIP3     H1       HT       0.417000        1.0080           0
     23670 WT1      7746     TIP3     H2       HT       0.417000        1.0080           0
     23671 WT1      7747     TIP3     OH2      OT      -0.834000       15.9994           0
     23672 WT1      7747     TIP3     H1       HT       0.417000        1.0080           0
     23673 WT1      7747     TIP3     H2       HT       0.417000        1.0080           0
     23674 WT1      7748     TIP3     OH2      OT      -0.834000       15.9994           0
     23675 WT1      7748     TIP3     H1       HT       0.417000        1.0080           0
     23676 WT1      7748     TIP3     H2       HT       0.417000        1.0080           0
     23677 WT1      7749     TIP3     OH2      OT      -0.834000       15.9994           0
     23678 WT1      7749     TIP3     H1       HT       0.417000        1.0080           0
     23679 WT1      7749     TIP3     H2       HT       0.417000        1.0080           0
     23680 WT1      7750     TIP3     OH2      OT      -0.834000       15.9994           0
     23681 WT1      7750     TIP3     H1       HT       0.417000        1.0080           0
     23682 WT1      7750     TIP3     H2       HT       0.417000        1.0080           0
     23683 WT1      7751     TIP3     OH2      OT      -0.834000       15.9994           0
     23684 WT1      7751     TIP3     H1       HT       0.417000        1.0080           0
     23685 WT1      7751     TIP3     H2       HT       0.417000        1.0080           0
     23686 WT1      7752     TIP3     OH2      OT      -0.834000       15.9994           0
     23687 WT1      7752     TIP3     H1       HT       0.417000        1.0080           0
     23688 WT1      7752     TIP3     H2       HT       0.417000        1.0080           0
     23689 WT1      7753     TIP3     OH2      OT      -0.834000       15.9994           0
     23690 WT1      7753     TIP3     H1       HT       0.417000        1.0080           0
     23691 WT1      7753     TIP3     H2       HT       0.417000        1.0080           0
     23692 WT1      7754     TIP3     OH2      OT      -0.834000       15.9994           0
     23693 WT1      7754     TIP3     H1       HT       0.417000        1.0080           0
     23694 WT1      7754     TIP3     H2       HT       0.417000        1.0080           0
     23695 WT1      7755     TIP3     OH2      OT      -0.834000       15.9994           0
     23696 WT1      7755     TIP3     H1       HT       0.417000        1.0080           0
     23697 WT1      7755     TIP3     H2       HT       0.417000        1.0080           0
     23698 WT1      7756     TIP3     OH2      OT      -0.834000       15.9994           0
     23699 WT1      7756     TIP3     H1       HT       0.417000        1.0080           0
     23700 WT1      7756     TIP3     H2       HT       0.417000        1.0080           0
     23701 WT1      7757     TIP3     OH2      OT      -0.834000       15.9994           0
     23702 WT1      7757     TIP3     H1       HT       0.417000        1.0080           0
     23703 WT1      7757     TIP3     H2       HT       0.417000        1.0080           0
     23704 WT1      7758     TIP3     OH2      OT      -0.834000       15.9994           0
     23705 WT1      7758     TIP3     H1       HT       0.417000        1.0080           0
     23706 WT1      7758     TIP3     H2       HT       0.417000        1.0080           0
     23707 WT1      7759     TIP3     OH2      OT      -0.834000       15.9994           0
     23708 WT1      7759     TIP3     H1       HT       0.417000        1.0080           0
     23709 WT1      7759     TIP3     H2       HT       0.417000        1.0080           0
     23710 WT1      7760     TIP3     OH2      OT      -0.834000       15.9994           0
     23711 WT1      7760     TIP3     H1       HT       0.417000        1.0080           0
     23712 WT1      7760     TIP3     H2       HT       0.417000        1.0080           0
     23713 WT1      7761     TIP3     OH2      OT      -0.834000       15.9994           0
     23714 WT1      7761     TIP3     H1       HT       0.417000        1.0080           0
     23715 WT1      7761     TIP3     H2       HT       0.417000        1.0080           0
     23716 WT1      7762     TIP3     OH2      OT      -0.834000       15.9994           0
     23717 WT1      7762     TIP3     H1       HT       0.417000        1.0080           0
     23718 WT1      7762     TIP3     H2       HT       0.417000        1.0080           0
     23719 WT1      7763     TIP3     OH2      OT      -0.834000       15.9994           0
     23720 WT1      7763     TIP3     H1       HT       0.417000        1.0080           0
     23721 WT1      7763     TIP3     H2       HT       0.417000        1.0080           0
     23722 WT1      7765     TIP3     OH2      OT      -0.834000       15.9994           0
     23723 WT1      7765     TIP3     H1       HT       0.417000        1.0080           0
     23724 WT1      7765     TIP3     H2       HT       0.417000        1.0080           0
     23725 WT1      7766     TIP3     OH2      OT      -0.834000       15.9994           0
     23726 WT1      7766     TIP3     H1       HT       0.417000        1.0080           0
     23727 WT1      7766     TIP3     H2       HT       0.417000        1.0080           0
     23728 WT1      7767     TIP3     OH2      OT      -0.834000       15.9994           0
     23729 WT1      7767     TIP3     H1       HT       0.417000        1.0080           0
     23730 WT1      7767     TIP3     H2       HT       0.417000        1.0080           0
     23731 WT1      7768     TIP3     OH2      OT      -0.834000       15.9994           0
     23732 WT1      7768     TIP3     H1       HT       0.417000        1.0080           0
     23733 WT1      7768     TIP3     H2       HT       0.417000        1.0080           0
     23734 WT1      7769     TIP3     OH2      OT      -0.834000       15.9994           0
     23735 WT1      7769     TIP3     H1       HT       0.417000        1.0080           0
     23736 WT1      7769     TIP3     H2       HT       0.417000        1.0080           0
     23737 WT1      7770     TIP3     OH2      OT      -0.834000       15.9994           0
     23738 WT1      7770     TIP3     H1       HT       0.417000        1.0080           0
     23739 WT1      7770     TIP3     H2       HT       0.417000        1.0080           0
     23740 WT1      7771     TIP3     OH2      OT      -0.834000       15.9994           0
     23741 WT1      7771     TIP3     H1       HT       0.417000        1.0080           0
     23742 WT1      7771     TIP3     H2       HT       0.417000        1.0080           0
     23743 WT1      7772     TIP3     OH2      OT      -0.834000       15.9994           0
     23744 WT1      7772     TIP3     H1       HT       0.417000        1.0080           0
     23745 WT1      7772     TIP3     H2       HT       0.417000        1.0080           0
     23746 WT1      7773     TIP3     OH2      OT      -0.834000       15.9994           0
     23747 WT1      7773     TIP3     H1       HT       0.417000        1.0080           0
     23748 WT1      7773     TIP3     H2       HT       0.417000        1.0080           0
     23749 WT1      7774     TIP3     OH2      OT      -0.834000       15.9994           0
     23750 WT1      7774     TIP3     H1       HT       0.417000        1.0080           0
     23751 WT1      7774     TIP3     H2       HT       0.417000        1.0080           0
     23752 WT1      7775     TIP3     OH2      OT      -0.834000       15.9994           0
     23753 WT1      7775     TIP3     H1       HT       0.417000        1.0080           0
     23754 WT1      7775     TIP3     H2       HT       0.417000        1.0080           0
     23755 WT1      7776     TIP3     OH2      OT      -0.834000       15.9994           0
     23756 WT1      7776     TIP3     H1       HT       0.417000        1.0080           0
     23757 WT1      7776     TIP3     H2       HT       0.417000        1.0080           0
     23758 WT1      7777     TIP3     OH2      OT      -0.834000       15.9994           0
     23759 WT1      7777     TIP3     H1       HT       0.417000        1.0080           0
     23760 WT1      7777     TIP3     H2       HT       0.417000        1.0080           0
     23761 WT1      7778     TIP3     OH2      OT      -0.834000       15.9994           0
     23762 WT1      7778     TIP3     H1       HT       0.417000        1.0080           0
     23763 WT1      7778     TIP3     H2       HT       0.417000        1.0080           0
     23764 WT1      7779     TIP3     OH2      OT      -0.834000       15.9994           0
     23765 WT1      7779     TIP3     H1       HT       0.417000        1.0080           0
     23766 WT1      7779     TIP3     H2       HT       0.417000        1.0080           0
     23767 WT1      7780     TIP3     OH2      OT      -0.834000       15.9994           0
     23768 WT1      7780     TIP3     H1       HT       0.417000        1.0080           0
     23769 WT1      7780     TIP3     H2       HT       0.417000        1.0080           0
     23770 WT1      7781     TIP3     OH2      OT      -0.834000       15.9994           0
     23771 WT1      7781     TIP3     H1       HT       0.417000        1.0080           0
     23772 WT1      7781     TIP3     H2       HT       0.417000        1.0080           0
     23773 WT1      7782     TIP3     OH2      OT      -0.834000       15.9994           0
     23774 WT1      7782     TIP3     H1       HT       0.417000        1.0080           0
     23775 WT1      7782     TIP3     H2       HT       0.417000        1.0080           0
     23776 WT1      7783     TIP3     OH2      OT      -0.834000       15.9994           0
     23777 WT1      7783     TIP3     H1       HT       0.417000        1.0080           0
     23778 WT1      7783     TIP3     H2       HT       0.417000        1.0080           0
     23779 WT1      7784     TIP3     OH2      OT      -0.834000       15.9994           0
     23780 WT1      7784     TIP3     H1       HT       0.417000        1.0080           0
     23781 WT1      7784     TIP3     H2       HT       0.417000        1.0080           0
     23782 WT1      7785     TIP3     OH2      OT      -0.834000       15.9994           0
     23783 WT1      7785     TIP3     H1       HT       0.417000        1.0080           0
     23784 WT1      7785     TIP3     H2       HT       0.417000        1.0080           0
     23785 WT1      7786     TIP3     OH2      OT      -0.834000       15.9994           0
     23786 WT1      7786     TIP3     H1       HT       0.417000        1.0080           0
     23787 WT1      7786     TIP3     H2       HT       0.417000        1.0080           0
     23788 WT1      7787     TIP3     OH2      OT      -0.834000       15.9994           0
     23789 WT1      7787     TIP3     H1       HT       0.417000        1.0080           0
     23790 WT1      7787     TIP3     H2       HT       0.417000        1.0080           0
     23791 WT1      7788     TIP3     OH2      OT      -0.834000       15.9994           0
     23792 WT1      7788     TIP3     H1       HT       0.417000        1.0080           0
     23793 WT1      7788     TIP3     H2       HT       0.417000        1.0080           0
     23794 WT1      7789     TIP3     OH2      OT      -0.834000       15.9994           0
     23795 WT1      7789     TIP3     H1       HT       0.417000        1.0080           0
     23796 WT1      7789     TIP3     H2       HT       0.417000        1.0080           0
     23797 WT1      7790     TIP3     OH2      OT      -0.834000       15.9994           0
     23798 WT1      7790     TIP3     H1       HT       0.417000        1.0080           0
     23799 WT1      7790     TIP3     H2       HT       0.417000        1.0080           0
     23800 WT1      7791     TIP3     OH2      OT      -0.834000       15.9994           0
     23801 WT1      7791     TIP3     H1       HT       0.417000        1.0080           0
     23802 WT1      7791     TIP3     H2       HT       0.417000        1.0080           0
     23803 WT1      7792     TIP3     OH2      OT      -0.834000       15.9994           0
     23804 WT1      7792     TIP3     H1       HT       0.417000        1.0080           0
     23805 WT1      7792     TIP3     H2       HT       0.417000        1.0080           0
     23806 WT1      7793     TIP3     OH2      OT      -0.834000       15.9994           0
     23807 WT1      7793     TIP3     H1       HT       0.417000        1.0080           0
     23808 WT1      7793     TIP3     H2       HT       0.417000        1.0080           0
     23809 WT1      7794     TIP3     OH2      OT      -0.834000       15.9994           0
     23810 WT1      7794     TIP3     H1       HT       0.417000        1.0080           0
     23811 WT1      7794     TIP3     H2       HT       0.417000        1.0080           0
     23812 WT1      7796     TIP3     OH2      OT      -0.834000       15.9994           0
     23813 WT1      7796     TIP3     H1       HT       0.417000        1.0080           0
     23814 WT1      7796     TIP3     H2       HT       0.417000        1.0080           0
     23815 WT1      7797     TIP3     OH2      OT      -0.834000       15.9994           0
     23816 WT1      7797     TIP3     H1       HT       0.417000        1.0080           0
     23817 WT1      7797     TIP3     H2       HT       0.417000        1.0080           0
     23818 WT1      7798     TIP3     OH2      OT      -0.834000       15.9994           0
     23819 WT1      7798     TIP3     H1       HT       0.417000        1.0080           0
     23820 WT1      7798     TIP3     H2       HT       0.417000        1.0080           0
     23821 WT1      7799     TIP3     OH2      OT      -0.834000       15.9994           0
     23822 WT1      7799     TIP3     H1       HT       0.417000        1.0080           0
     23823 WT1      7799     TIP3     H2       HT       0.417000        1.0080           0
     23824 WT1      7800     TIP3     OH2      OT      -0.834000       15.9994           0
     23825 WT1      7800     TIP3     H1       HT       0.417000        1.0080           0
     23826 WT1      7800     TIP3     H2       HT       0.417000        1.0080           0
     23827 WT1      7801     TIP3     OH2      OT      -0.834000       15.9994           0
     23828 WT1      7801     TIP3     H1       HT       0.417000        1.0080           0
     23829 WT1      7801     TIP3     H2       HT       0.417000        1.0080           0
     23830 WT1      7802     TIP3     OH2      OT      -0.834000       15.9994           0
     23831 WT1      7802     TIP3     H1       HT       0.417000        1.0080           0
     23832 WT1      7802     TIP3     H2       HT       0.417000        1.0080           0
     23833 WT1      7803     TIP3     OH2      OT      -0.834000       15.9994           0
     23834 WT1      7803     TIP3     H1       HT       0.417000        1.0080           0
     23835 WT1      7803     TIP3     H2       HT       0.417000        1.0080           0
     23836 WT1      7804     TIP3     OH2      OT      -0.834000       15.9994           0
     23837 WT1      7804     TIP3     H1       HT       0.417000        1.0080           0
     23838 WT1      7804     TIP3     H2       HT       0.417000        1.0080           0
     23839 WT1      7805     TIP3     OH2      OT      -0.834000       15.9994           0
     23840 WT1      7805     TIP3     H1       HT       0.417000        1.0080           0
     23841 WT1      7805     TIP3     H2       HT       0.417000        1.0080           0
     23842 WT1      7807     TIP3     OH2      OT      -0.834000       15.9994           0
     23843 WT1      7807     TIP3     H1       HT       0.417000        1.0080           0
     23844 WT1      7807     TIP3     H2       HT       0.417000        1.0080           0
     23845 WT1      7808     TIP3     OH2      OT      -0.834000       15.9994           0
     23846 WT1      7808     TIP3     H1       HT       0.417000        1.0080           0
     23847 WT1      7808     TIP3     H2       HT       0.417000        1.0080           0
     23848 WT1      7809     TIP3     OH2      OT      -0.834000       15.9994           0
     23849 WT1      7809     TIP3     H1       HT       0.417000        1.0080           0
     23850 WT1      7809     TIP3     H2       HT       0.417000        1.0080           0
     23851 WT1      7810     TIP3     OH2      OT      -0.834000       15.9994           0
     23852 WT1      7810     TIP3     H1       HT       0.417000        1.0080           0
     23853 WT1      7810     TIP3     H2       HT       0.417000        1.0080           0
     23854 WT1      7811     TIP3     OH2      OT      -0.834000       15.9994           0
     23855 WT1      7811     TIP3     H1       HT       0.417000        1.0080           0
     23856 WT1      7811     TIP3     H2       HT       0.417000        1.0080           0
     23857 WT1      7812     TIP3     OH2      OT      -0.834000       15.9994           0
     23858 WT1      7812     TIP3     H1       HT       0.417000        1.0080           0
     23859 WT1      7812     TIP3     H2       HT       0.417000        1.0080           0
     23860 WT1      7813     TIP3     OH2      OT      -0.834000       15.9994           0
     23861 WT1      7813     TIP3     H1       HT       0.417000        1.0080           0
     23862 WT1      7813     TIP3     H2       HT       0.417000        1.0080           0
     23863 WT1      7814     TIP3     OH2      OT      -0.834000       15.9994           0
     23864 WT1      7814     TIP3     H1       HT       0.417000        1.0080           0
     23865 WT1      7814     TIP3     H2       HT       0.417000        1.0080           0
     23866 WT1      7815     TIP3     OH2      OT      -0.834000       15.9994           0
     23867 WT1      7815     TIP3     H1       HT       0.417000        1.0080           0
     23868 WT1      7815     TIP3     H2       HT       0.417000        1.0080           0
     23869 WT1      7816     TIP3     OH2      OT      -0.834000       15.9994           0
     23870 WT1      7816     TIP3     H1       HT       0.417000        1.0080           0
     23871 WT1      7816     TIP3     H2       HT       0.417000        1.0080           0
     23872 WT1      7817     TIP3     OH2      OT      -0.834000       15.9994           0
     23873 WT1      7817     TIP3     H1       HT       0.417000        1.0080           0
     23874 WT1      7817     TIP3     H2       HT       0.417000        1.0080           0
     23875 WT1      7818     TIP3     OH2      OT      -0.834000       15.9994           0
     23876 WT1      7818     TIP3     H1       HT       0.417000        1.0080           0
     23877 WT1      7818     TIP3     H2       HT       0.417000        1.0080           0
     23878 WT1      7819     TIP3     OH2      OT      -0.834000       15.9994           0
     23879 WT1      7819     TIP3     H1       HT       0.417000        1.0080           0
     23880 WT1      7819     TIP3     H2       HT       0.417000        1.0080           0
     23881 WT1      7820     TIP3     OH2      OT      -0.834000       15.9994           0
     23882 WT1      7820     TIP3     H1       HT       0.417000        1.0080           0
     23883 WT1      7820     TIP3     H2       HT       0.417000        1.0080           0
     23884 WT1      7821     TIP3     OH2      OT      -0.834000       15.9994           0
     23885 WT1      7821     TIP3     H1       HT       0.417000        1.0080           0
     23886 WT1      7821     TIP3     H2       HT       0.417000        1.0080           0
     23887 WT1      7822     TIP3     OH2      OT      -0.834000       15.9994           0
     23888 WT1      7822     TIP3     H1       HT       0.417000        1.0080           0
     23889 WT1      7822     TIP3     H2       HT       0.417000        1.0080           0
     23890 WT1      7823     TIP3     OH2      OT      -0.834000       15.9994           0
     23891 WT1      7823     TIP3     H1       HT       0.417000        1.0080           0
     23892 WT1      7823     TIP3     H2       HT       0.417000        1.0080           0
     23893 WT1      7824     TIP3     OH2      OT      -0.834000       15.9994           0
     23894 WT1      7824     TIP3     H1       HT       0.417000        1.0080           0
     23895 WT1      7824     TIP3     H2       HT       0.417000        1.0080           0
     23896 WT1      7825     TIP3     OH2      OT      -0.834000       15.9994           0
     23897 WT1      7825     TIP3     H1       HT       0.417000        1.0080           0
     23898 WT1      7825     TIP3     H2       HT       0.417000        1.0080           0
     23899 WT1      7826     TIP3     OH2      OT      -0.834000       15.9994           0
     23900 WT1      7826     TIP3     H1       HT       0.417000        1.0080           0
     23901 WT1      7826     TIP3     H2       HT       0.417000        1.0080           0
     23902 WT1      7828     TIP3     OH2      OT      -0.834000       15.9994           0
     23903 WT1      7828     TIP3     H1       HT       0.417000        1.0080           0
     23904 WT1      7828     TIP3     H2       HT       0.417000        1.0080           0
     23905 WT1      7829     TIP3     OH2      OT      -0.834000       15.9994           0
     23906 WT1      7829     TIP3     H1       HT       0.417000        1.0080           0
     23907 WT1      7829     TIP3     H2       HT       0.417000        1.0080           0
     23908 WT1      7830     TIP3     OH2      OT      -0.834000       15.9994           0
     23909 WT1      7830     TIP3     H1       HT       0.417000        1.0080           0
     23910 WT1      7830     TIP3     H2       HT       0.417000        1.0080           0
     23911 WT1      7831     TIP3     OH2      OT      -0.834000       15.9994           0
     23912 WT1      7831     TIP3     H1       HT       0.417000        1.0080           0
     23913 WT1      7831     TIP3     H2       HT       0.417000        1.0080           0
     23914 WT1      7832     TIP3     OH2      OT      -0.834000       15.9994           0
     23915 WT1      7832     TIP3     H1       HT       0.417000        1.0080           0
     23916 WT1      7832     TIP3     H2       HT       0.417000        1.0080           0
     23917 WT1      7833     TIP3     OH2      OT      -0.834000       15.9994           0
     23918 WT1      7833     TIP3     H1       HT       0.417000        1.0080           0
     23919 WT1      7833     TIP3     H2       HT       0.417000        1.0080           0
     23920 WT1      7834     TIP3     OH2      OT      -0.834000       15.9994           0
     23921 WT1      7834     TIP3     H1       HT       0.417000        1.0080           0
     23922 WT1      7834     TIP3     H2       HT       0.417000        1.0080           0
     23923 WT1      7835     TIP3     OH2      OT      -0.834000       15.9994           0
     23924 WT1      7835     TIP3     H1       HT       0.417000        1.0080           0
     23925 WT1      7835     TIP3     H2       HT       0.417000        1.0080           0
     23926 WT1      7836     TIP3     OH2      OT      -0.834000       15.9994           0
     23927 WT1      7836     TIP3     H1       HT       0.417000        1.0080           0
     23928 WT1      7836     TIP3     H2       HT       0.417000        1.0080           0
     23929 WT1      7837     TIP3     OH2      OT      -0.834000       15.9994           0
     23930 WT1      7837     TIP3     H1       HT       0.417000        1.0080           0
     23931 WT1      7837     TIP3     H2       HT       0.417000        1.0080           0
     23932 WT1      7838     TIP3     OH2      OT      -0.834000       15.9994           0
     23933 WT1      7838     TIP3     H1       HT       0.417000        1.0080           0
     23934 WT1      7838     TIP3     H2       HT       0.417000        1.0080           0
     23935 WT1      7839     TIP3     OH2      OT      -0.834000       15.9994           0
     23936 WT1      7839     TIP3     H1       HT       0.417000        1.0080           0
     23937 WT1      7839     TIP3     H2       HT       0.417000        1.0080           0
     23938 WT1      7840     TIP3     OH2      OT      -0.834000       15.9994           0
     23939 WT1      7840     TIP3     H1       HT       0.417000        1.0080           0
     23940 WT1      7840     TIP3     H2       HT       0.417000        1.0080           0
     23941 WT1      7841     TIP3     OH2      OT      -0.834000       15.9994           0
     23942 WT1      7841     TIP3     H1       HT       0.417000        1.0080           0
     23943 WT1      7841     TIP3     H2       HT       0.417000        1.0080           0
     23944 WT1      7842     TIP3     OH2      OT      -0.834000       15.9994           0
     23945 WT1      7842     TIP3     H1       HT       0.417000        1.0080           0
     23946 WT1      7842     TIP3     H2       HT       0.417000        1.0080           0
     23947 WT1      7843     TIP3     OH2      OT      -0.834000       15.9994           0
     23948 WT1      7843     TIP3     H1       HT       0.417000        1.0080           0
     23949 WT1      7843     TIP3     H2       HT       0.417000        1.0080           0
     23950 WT1      7844     TIP3     OH2      OT      -0.834000       15.9994           0
     23951 WT1      7844     TIP3     H1       HT       0.417000        1.0080           0
     23952 WT1      7844     TIP3     H2       HT       0.417000        1.0080           0
     23953 WT1      7845     TIP3     OH2      OT      -0.834000       15.9994           0
     23954 WT1      7845     TIP3     H1       HT       0.417000        1.0080           0
     23955 WT1      7845     TIP3     H2       HT       0.417000        1.0080           0
     23956 WT1      7846     TIP3     OH2      OT      -0.834000       15.9994           0
     23957 WT1      7846     TIP3     H1       HT       0.417000        1.0080           0
     23958 WT1      7846     TIP3     H2       HT       0.417000        1.0080           0
     23959 WT1      7847     TIP3     OH2      OT      -0.834000       15.9994           0
     23960 WT1      7847     TIP3     H1       HT       0.417000        1.0080           0
     23961 WT1      7847     TIP3     H2       HT       0.417000        1.0080           0
     23962 WT1      7848     TIP3     OH2      OT      -0.834000       15.9994           0
     23963 WT1      7848     TIP3     H1       HT       0.417000        1.0080           0
     23964 WT1      7848     TIP3     H2       HT       0.417000        1.0080           0
     23965 WT1      7849     TIP3     OH2      OT      -0.834000       15.9994           0
     23966 WT1      7849     TIP3     H1       HT       0.417000        1.0080           0
     23967 WT1      7849     TIP3     H2       HT       0.417000        1.0080           0
     23968 WT1      7850     TIP3     OH2      OT      -0.834000       15.9994           0
     23969 WT1      7850     TIP3     H1       HT       0.417000        1.0080           0
     23970 WT1      7850     TIP3     H2       HT       0.417000        1.0080           0
     23971 WT1      7851     TIP3     OH2      OT      -0.834000       15.9994           0
     23972 WT1      7851     TIP3     H1       HT       0.417000        1.0080           0
     23973 WT1      7851     TIP3     H2       HT       0.417000        1.0080           0
     23974 WT1      7852     TIP3     OH2      OT      -0.834000       15.9994           0
     23975 WT1      7852     TIP3     H1       HT       0.417000        1.0080           0
     23976 WT1      7852     TIP3     H2       HT       0.417000        1.0080           0
     23977 WT1      7853     TIP3     OH2      OT      -0.834000       15.9994           0
     23978 WT1      7853     TIP3     H1       HT       0.417000        1.0080           0
     23979 WT1      7853     TIP3     H2       HT       0.417000        1.0080           0
     23980 WT1      7854     TIP3     OH2      OT      -0.834000       15.9994           0
     23981 WT1      7854     TIP3     H1       HT       0.417000        1.0080           0
     23982 WT1      7854     TIP3     H2       HT       0.417000        1.0080           0
     23983 WT1      7856     TIP3     OH2      OT      -0.834000       15.9994           0
     23984 WT1      7856     TIP3     H1       HT       0.417000        1.0080           0
     23985 WT1      7856     TIP3     H2       HT       0.417000        1.0080           0
     23986 WT1      7857     TIP3     OH2      OT      -0.834000       15.9994           0
     23987 WT1      7857     TIP3     H1       HT       0.417000        1.0080           0
     23988 WT1      7857     TIP3     H2       HT       0.417000        1.0080           0
     23989 WT1      7858     TIP3     OH2      OT      -0.834000       15.9994           0
     23990 WT1      7858     TIP3     H1       HT       0.417000        1.0080           0
     23991 WT1      7858     TIP3     H2       HT       0.417000        1.0080           0
     23992 WT1      7859     TIP3     OH2      OT      -0.834000       15.9994           0
     23993 WT1      7859     TIP3     H1       HT       0.417000        1.0080           0
     23994 WT1      7859     TIP3     H2       HT       0.417000        1.0080           0
     23995 WT1      7860     TIP3     OH2      OT      -0.834000       15.9994           0
     23996 WT1      7860     TIP3     H1       HT       0.417000        1.0080           0
     23997 WT1      7860     TIP3     H2       HT       0.417000        1.0080           0
     23998 WT1      7861     TIP3     OH2      OT      -0.834000       15.9994           0
     23999 WT1      7861     TIP3     H1       HT       0.417000        1.0080           0
     24000 WT1      7861     TIP3     H2       HT       0.417000        1.0080           0
     24001 WT1      7862     TIP3     OH2      OT      -0.834000       15.9994           0
     24002 WT1      7862     TIP3     H1       HT       0.417000        1.0080           0
     24003 WT1      7862     TIP3     H2       HT       0.417000        1.0080           0
     24004 WT1      7863     TIP3     OH2      OT      -0.834000       15.9994           0
     24005 WT1      7863     TIP3     H1       HT       0.417000        1.0080           0
     24006 WT1      7863     TIP3     H2       HT       0.417000        1.0080           0
     24007 WT1      7864     TIP3     OH2      OT      -0.834000       15.9994           0
     24008 WT1      7864     TIP3     H1       HT       0.417000        1.0080           0
     24009 WT1      7864     TIP3     H2       HT       0.417000        1.0080           0
     24010 WT1      7865     TIP3     OH2      OT      -0.834000       15.9994           0
     24011 WT1      7865     TIP3     H1       HT       0.417000        1.0080           0
     24012 WT1      7865     TIP3     H2       HT       0.417000        1.0080           0
     24013 WT1      7866     TIP3     OH2      OT      -0.834000       15.9994           0
     24014 WT1      7866     TIP3     H1       HT       0.417000        1.0080           0
     24015 WT1      7866     TIP3     H2       HT       0.417000        1.0080           0
     24016 WT1      7867     TIP3     OH2      OT      -0.834000       15.9994           0
     24017 WT1      7867     TIP3     H1       HT       0.417000        1.0080           0
     24018 WT1      7867     TIP3     H2       HT       0.417000        1.0080           0
     24019 WT1      7868     TIP3     OH2      OT      -0.834000       15.9994           0
     24020 WT1      7868     TIP3     H1       HT       0.417000        1.0080           0
     24021 WT1      7868     TIP3     H2       HT       0.417000        1.0080           0
     24022 WT1      7869     TIP3     OH2      OT      -0.834000       15.9994           0
     24023 WT1      7869     TIP3     H1       HT       0.417000        1.0080           0
     24024 WT1      7869     TIP3     H2       HT       0.417000        1.0080           0
     24025 WT1      7870     TIP3     OH2      OT      -0.834000       15.9994           0
     24026 WT1      7870     TIP3     H1       HT       0.417000        1.0080           0
     24027 WT1      7870     TIP3     H2       HT       0.417000        1.0080           0
     24028 WT1      7871     TIP3     OH2      OT      -0.834000       15.9994           0
     24029 WT1      7871     TIP3     H1       HT       0.417000        1.0080           0
     24030 WT1      7871     TIP3     H2       HT       0.417000        1.0080           0
     24031 WT1      7872     TIP3     OH2      OT      -0.834000       15.9994           0
     24032 WT1      7872     TIP3     H1       HT       0.417000        1.0080           0
     24033 WT1      7872     TIP3     H2       HT       0.417000        1.0080           0
     24034 WT1      7873     TIP3     OH2      OT      -0.834000       15.9994           0
     24035 WT1      7873     TIP3     H1       HT       0.417000        1.0080           0
     24036 WT1      7873     TIP3     H2       HT       0.417000        1.0080           0
     24037 WT1      7874     TIP3     OH2      OT      -0.834000       15.9994           0
     24038 WT1      7874     TIP3     H1       HT       0.417000        1.0080           0
     24039 WT1      7874     TIP3     H2       HT       0.417000        1.0080           0
     24040 WT1      7875     TIP3     OH2      OT      -0.834000       15.9994           0
     24041 WT1      7875     TIP3     H1       HT       0.417000        1.0080           0
     24042 WT1      7875     TIP3     H2       HT       0.417000        1.0080           0
     24043 WT1      7877     TIP3     OH2      OT      -0.834000       15.9994           0
     24044 WT1      7877     TIP3     H1       HT       0.417000        1.0080           0
     24045 WT1      7877     TIP3     H2       HT       0.417000        1.0080           0
     24046 WT1      7878     TIP3     OH2      OT      -0.834000       15.9994           0
     24047 WT1      7878     TIP3     H1       HT       0.417000        1.0080           0
     24048 WT1      7878     TIP3     H2       HT       0.417000        1.0080           0
     24049 WT1      7879     TIP3     OH2      OT      -0.834000       15.9994           0
     24050 WT1      7879     TIP3     H1       HT       0.417000        1.0080           0
     24051 WT1      7879     TIP3     H2       HT       0.417000        1.0080           0
     24052 WT1      7880     TIP3     OH2      OT      -0.834000       15.9994           0
     24053 WT1      7880     TIP3     H1       HT       0.417000        1.0080           0
     24054 WT1      7880     TIP3     H2       HT       0.417000        1.0080           0
     24055 WT1      7881     TIP3     OH2      OT      -0.834000       15.9994           0
     24056 WT1      7881     TIP3     H1       HT       0.417000        1.0080           0
     24057 WT1      7881     TIP3     H2       HT       0.417000        1.0080           0
     24058 WT1      7882     TIP3     OH2      OT      -0.834000       15.9994           0
     24059 WT1      7882     TIP3     H1       HT       0.417000        1.0080           0
     24060 WT1      7882     TIP3     H2       HT       0.417000        1.0080           0
     24061 WT1      7883     TIP3     OH2      OT      -0.834000       15.9994           0
     24062 WT1      7883     TIP3     H1       HT       0.417000        1.0080           0
     24063 WT1      7883     TIP3     H2       HT       0.417000        1.0080           0
     24064 WT1      7884     TIP3     OH2      OT      -0.834000       15.9994           0
     24065 WT1      7884     TIP3     H1       HT       0.417000        1.0080           0
     24066 WT1      7884     TIP3     H2       HT       0.417000        1.0080           0
     24067 WT1      7885     TIP3     OH2      OT      -0.834000       15.9994           0
     24068 WT1      7885     TIP3     H1       HT       0.417000        1.0080           0
     24069 WT1      7885     TIP3     H2       HT       0.417000        1.0080           0
     24070 WT1      7886     TIP3     OH2      OT      -0.834000       15.9994           0
     24071 WT1      7886     TIP3     H1       HT       0.417000        1.0080           0
     24072 WT1      7886     TIP3     H2       HT       0.417000        1.0080           0
     24073 WT1      7887     TIP3     OH2      OT      -0.834000       15.9994           0
     24074 WT1      7887     TIP3     H1       HT       0.417000        1.0080           0
     24075 WT1      7887     TIP3     H2       HT       0.417000        1.0080           0
     24076 WT1      7888     TIP3     OH2      OT      -0.834000       15.9994           0
     24077 WT1      7888     TIP3     H1       HT       0.417000        1.0080           0
     24078 WT1      7888     TIP3     H2       HT       0.417000        1.0080           0
     24079 WT1      7889     TIP3     OH2      OT      -0.834000       15.9994           0
     24080 WT1      7889     TIP3     H1       HT       0.417000        1.0080           0
     24081 WT1      7889     TIP3     H2       HT       0.417000        1.0080           0
     24082 WT1      7890     TIP3     OH2      OT      -0.834000       15.9994           0
     24083 WT1      7890     TIP3     H1       HT       0.417000        1.0080           0
     24084 WT1      7890     TIP3     H2       HT       0.417000        1.0080           0
     24085 WT1      7891     TIP3     OH2      OT      -0.834000       15.9994           0
     24086 WT1      7891     TIP3     H1       HT       0.417000        1.0080           0
     24087 WT1      7891     TIP3     H2       HT       0.417000        1.0080           0
     24088 WT1      7892     TIP3     OH2      OT      -0.834000       15.9994           0
     24089 WT1      7892     TIP3     H1       HT       0.417000        1.0080           0
     24090 WT1      7892     TIP3     H2       HT       0.417000        1.0080           0
     24091 WT1      7893     TIP3     OH2      OT      -0.834000       15.9994           0
     24092 WT1      7893     TIP3     H1       HT       0.417000        1.0080           0
     24093 WT1      7893     TIP3     H2       HT       0.417000        1.0080           0
     24094 WT1      7895     TIP3     OH2      OT      -0.834000       15.9994           0
     24095 WT1      7895     TIP3     H1       HT       0.417000        1.0080           0
     24096 WT1      7895     TIP3     H2       HT       0.417000        1.0080           0
     24097 WT1      7896     TIP3     OH2      OT      -0.834000       15.9994           0
     24098 WT1      7896     TIP3     H1       HT       0.417000        1.0080           0
     24099 WT1      7896     TIP3     H2       HT       0.417000        1.0080           0
     24100 WT1      7897     TIP3     OH2      OT      -0.834000       15.9994           0
     24101 WT1      7897     TIP3     H1       HT       0.417000        1.0080           0
     24102 WT1      7897     TIP3     H2       HT       0.417000        1.0080           0
     24103 WT1      7898     TIP3     OH2      OT      -0.834000       15.9994           0
     24104 WT1      7898     TIP3     H1       HT       0.417000        1.0080           0
     24105 WT1      7898     TIP3     H2       HT       0.417000        1.0080           0
     24106 WT1      7899     TIP3     OH2      OT      -0.834000       15.9994           0
     24107 WT1      7899     TIP3     H1       HT       0.417000        1.0080           0
     24108 WT1      7899     TIP3     H2       HT       0.417000        1.0080           0
     24109 WT1      7900     TIP3     OH2      OT      -0.834000       15.9994           0
     24110 WT1      7900     TIP3     H1       HT       0.417000        1.0080           0
     24111 WT1      7900     TIP3     H2       HT       0.417000        1.0080           0
     24112 WT1      7901     TIP3     OH2      OT      -0.834000       15.9994           0
     24113 WT1      7901     TIP3     H1       HT       0.417000        1.0080           0
     24114 WT1      7901     TIP3     H2       HT       0.417000        1.0080           0
     24115 WT1      7902     TIP3     OH2      OT      -0.834000       15.9994           0
     24116 WT1      7902     TIP3     H1       HT       0.417000        1.0080           0
     24117 WT1      7902     TIP3     H2       HT       0.417000        1.0080           0
     24118 WT1      7903     TIP3     OH2      OT      -0.834000       15.9994           0
     24119 WT1      7903     TIP3     H1       HT       0.417000        1.0080           0
     24120 WT1      7903     TIP3     H2       HT       0.417000        1.0080           0
     24121 WT1      7904     TIP3     OH2      OT      -0.834000       15.9994           0
     24122 WT1      7904     TIP3     H1       HT       0.417000        1.0080           0
     24123 WT1      7904     TIP3     H2       HT       0.417000        1.0080           0
     24124 WT1      7905     TIP3     OH2      OT      -0.834000       15.9994           0
     24125 WT1      7905     TIP3     H1       HT       0.417000        1.0080           0
     24126 WT1      7905     TIP3     H2       HT       0.417000        1.0080           0
     24127 WT1      7906     TIP3     OH2      OT      -0.834000       15.9994           0
     24128 WT1      7906     TIP3     H1       HT       0.417000        1.0080           0
     24129 WT1      7906     TIP3     H2       HT       0.417000        1.0080           0
     24130 WT1      7907     TIP3     OH2      OT      -0.834000       15.9994           0
     24131 WT1      7907     TIP3     H1       HT       0.417000        1.0080           0
     24132 WT1      7907     TIP3     H2       HT       0.417000        1.0080           0
     24133 WT1      7908     TIP3     OH2      OT      -0.834000       15.9994           0
     24134 WT1      7908     TIP3     H1       HT       0.417000        1.0080           0
     24135 WT1      7908     TIP3     H2       HT       0.417000        1.0080           0
     24136 WT1      7909     TIP3     OH2      OT      -0.834000       15.9994           0
     24137 WT1      7909     TIP3     H1       HT       0.417000        1.0080           0
     24138 WT1      7909     TIP3     H2       HT       0.417000        1.0080           0
     24139 WT1      7910     TIP3     OH2      OT      -0.834000       15.9994           0
     24140 WT1      7910     TIP3     H1       HT       0.417000        1.0080           0
     24141 WT1      7910     TIP3     H2       HT       0.417000        1.0080           0
     24142 WT1      7911     TIP3     OH2      OT      -0.834000       15.9994           0
     24143 WT1      7911     TIP3     H1       HT       0.417000        1.0080           0
     24144 WT1      7911     TIP3     H2       HT       0.417000        1.0080           0
     24145 WT1      7912     TIP3     OH2      OT      -0.834000       15.9994           0
     24146 WT1      7912     TIP3     H1       HT       0.417000        1.0080           0
     24147 WT1      7912     TIP3     H2       HT       0.417000        1.0080           0
     24148 WT1      7913     TIP3     OH2      OT      -0.834000       15.9994           0
     24149 WT1      7913     TIP3     H1       HT       0.417000        1.0080           0
     24150 WT1      7913     TIP3     H2       HT       0.417000        1.0080           0
     24151 WT1      7914     TIP3     OH2      OT      -0.834000       15.9994           0
     24152 WT1      7914     TIP3     H1       HT       0.417000        1.0080           0
     24153 WT1      7914     TIP3     H2       HT       0.417000        1.0080           0
     24154 WT1      7915     TIP3     OH2      OT      -0.834000       15.9994           0
     24155 WT1      7915     TIP3     H1       HT       0.417000        1.0080           0
     24156 WT1      7915     TIP3     H2       HT       0.417000        1.0080           0
     24157 WT1      7916     TIP3     OH2      OT      -0.834000       15.9994           0
     24158 WT1      7916     TIP3     H1       HT       0.417000        1.0080           0
     24159 WT1      7916     TIP3     H2       HT       0.417000        1.0080           0
     24160 WT1      7917     TIP3     OH2      OT      -0.834000       15.9994           0
     24161 WT1      7917     TIP3     H1       HT       0.417000        1.0080           0
     24162 WT1      7917     TIP3     H2       HT       0.417000        1.0080           0
     24163 WT1      7918     TIP3     OH2      OT      -0.834000       15.9994           0
     24164 WT1      7918     TIP3     H1       HT       0.417000        1.0080           0
     24165 WT1      7918     TIP3     H2       HT       0.417000        1.0080           0
     24166 WT1      7919     TIP3     OH2      OT      -0.834000       15.9994           0
     24167 WT1      7919     TIP3     H1       HT       0.417000        1.0080           0
     24168 WT1      7919     TIP3     H2       HT       0.417000        1.0080           0
     24169 WT1      7920     TIP3     OH2      OT      -0.834000       15.9994           0
     24170 WT1      7920     TIP3     H1       HT       0.417000        1.0080           0
     24171 WT1      7920     TIP3     H2       HT       0.417000        1.0080           0
     24172 WT1      7921     TIP3     OH2      OT      -0.834000       15.9994           0
     24173 WT1      7921     TIP3     H1       HT       0.417000        1.0080           0
     24174 WT1      7921     TIP3     H2       HT       0.417000        1.0080           0
     24175 WT1      7922     TIP3     OH2      OT      -0.834000       15.9994           0
     24176 WT1      7922     TIP3     H1       HT       0.417000        1.0080           0
     24177 WT1      7922     TIP3     H2       HT       0.417000        1.0080           0
     24178 WT1      7923     TIP3     OH2      OT      -0.834000       15.9994           0
     24179 WT1      7923     TIP3     H1       HT       0.417000        1.0080           0
     24180 WT1      7923     TIP3     H2       HT       0.417000        1.0080           0
     24181 WT1      7924     TIP3     OH2      OT      -0.834000       15.9994           0
     24182 WT1      7924     TIP3     H1       HT       0.417000        1.0080           0
     24183 WT1      7924     TIP3     H2       HT       0.417000        1.0080           0
     24184 WT1      7925     TIP3     OH2      OT      -0.834000       15.9994           0
     24185 WT1      7925     TIP3     H1       HT       0.417000        1.0080           0
     24186 WT1      7925     TIP3     H2       HT       0.417000        1.0080           0
     24187 WT1      7926     TIP3     OH2      OT      -0.834000       15.9994           0
     24188 WT1      7926     TIP3     H1       HT       0.417000        1.0080           0
     24189 WT1      7926     TIP3     H2       HT       0.417000        1.0080           0
     24190 WT1      7927     TIP3     OH2      OT      -0.834000       15.9994           0
     24191 WT1      7927     TIP3     H1       HT       0.417000        1.0080           0
     24192 WT1      7927     TIP3     H2       HT       0.417000        1.0080           0
     24193 WT1      7928     TIP3     OH2      OT      -0.834000       15.9994           0
     24194 WT1      7928     TIP3     H1       HT       0.417000        1.0080           0
     24195 WT1      7928     TIP3     H2       HT       0.417000        1.0080           0
     24196 WT1      7929     TIP3     OH2      OT      -0.834000       15.9994           0
     24197 WT1      7929     TIP3     H1       HT       0.417000        1.0080           0
     24198 WT1      7929     TIP3     H2       HT       0.417000        1.0080           0
     24199 WT1      7930     TIP3     OH2      OT      -0.834000       15.9994           0
     24200 WT1      7930     TIP3     H1       HT       0.417000        1.0080           0
     24201 WT1      7930     TIP3     H2       HT       0.417000        1.0080           0
     24202 WT1      7931     TIP3     OH2      OT      -0.834000       15.9994           0
     24203 WT1      7931     TIP3     H1       HT       0.417000        1.0080           0
     24204 WT1      7931     TIP3     H2       HT       0.417000        1.0080           0
     24205 WT1      7932     TIP3     OH2      OT      -0.834000       15.9994           0
     24206 WT1      7932     TIP3     H1       HT       0.417000        1.0080           0
     24207 WT1      7932     TIP3     H2       HT       0.417000        1.0080           0
     24208 WT1      7933     TIP3     OH2      OT      -0.834000       15.9994           0
     24209 WT1      7933     TIP3     H1       HT       0.417000        1.0080           0
     24210 WT1      7933     TIP3     H2       HT       0.417000        1.0080           0
     24211 WT1      7934     TIP3     OH2      OT      -0.834000       15.9994           0
     24212 WT1      7934     TIP3     H1       HT       0.417000        1.0080           0
     24213 WT1      7934     TIP3     H2       HT       0.417000        1.0080           0
     24214 WT1      7935     TIP3     OH2      OT      -0.834000       15.9994           0
     24215 WT1      7935     TIP3     H1       HT       0.417000        1.0080           0
     24216 WT1      7935     TIP3     H2       HT       0.417000        1.0080           0
     24217 WT1      7936     TIP3     OH2      OT      -0.834000       15.9994           0
     24218 WT1      7936     TIP3     H1       HT       0.417000        1.0080           0
     24219 WT1      7936     TIP3     H2       HT       0.417000        1.0080           0
     24220 WT1      7937     TIP3     OH2      OT      -0.834000       15.9994           0
     24221 WT1      7937     TIP3     H1       HT       0.417000        1.0080           0
     24222 WT1      7937     TIP3     H2       HT       0.417000        1.0080           0
     24223 WT1      7938     TIP3     OH2      OT      -0.834000       15.9994           0
     24224 WT1      7938     TIP3     H1       HT       0.417000        1.0080           0
     24225 WT1      7938     TIP3     H2       HT       0.417000        1.0080           0
     24226 WT1      7939     TIP3     OH2      OT      -0.834000       15.9994           0
     24227 WT1      7939     TIP3     H1       HT       0.417000        1.0080           0
     24228 WT1      7939     TIP3     H2       HT       0.417000        1.0080           0
     24229 WT1      7940     TIP3     OH2      OT      -0.834000       15.9994           0
     24230 WT1      7940     TIP3     H1       HT       0.417000        1.0080           0
     24231 WT1      7940     TIP3     H2       HT       0.417000        1.0080           0
     24232 WT1      7941     TIP3     OH2      OT      -0.834000       15.9994           0
     24233 WT1      7941     TIP3     H1       HT       0.417000        1.0080           0
     24234 WT1      7941     TIP3     H2       HT       0.417000        1.0080           0
     24235 WT1      7942     TIP3     OH2      OT      -0.834000       15.9994           0
     24236 WT1      7942     TIP3     H1       HT       0.417000        1.0080           0
     24237 WT1      7942     TIP3     H2       HT       0.417000        1.0080           0
     24238 WT1      7943     TIP3     OH2      OT      -0.834000       15.9994           0
     24239 WT1      7943     TIP3     H1       HT       0.417000        1.0080           0
     24240 WT1      7943     TIP3     H2       HT       0.417000        1.0080           0
     24241 WT1      7944     TIP3     OH2      OT      -0.834000       15.9994           0
     24242 WT1      7944     TIP3     H1       HT       0.417000        1.0080           0
     24243 WT1      7944     TIP3     H2       HT       0.417000        1.0080           0
     24244 WT1      7945     TIP3     OH2      OT      -0.834000       15.9994           0
     24245 WT1      7945     TIP3     H1       HT       0.417000        1.0080           0
     24246 WT1      7945     TIP3     H2       HT       0.417000        1.0080           0
     24247 WT1      7946     TIP3     OH2      OT      -0.834000       15.9994           0
     24248 WT1      7946     TIP3     H1       HT       0.417000        1.0080           0
     24249 WT1      7946     TIP3     H2       HT       0.417000        1.0080           0
     24250 WT1      7947     TIP3     OH2      OT      -0.834000       15.9994           0
     24251 WT1      7947     TIP3     H1       HT       0.417000        1.0080           0
     24252 WT1      7947     TIP3     H2       HT       0.417000        1.0080           0
     24253 WT1      7948     TIP3     OH2      OT      -0.834000       15.9994           0
     24254 WT1      7948     TIP3     H1       HT       0.417000        1.0080           0
     24255 WT1      7948     TIP3     H2       HT       0.417000        1.0080           0
     24256 WT1      7949     TIP3     OH2      OT      -0.834000       15.9994           0
     24257 WT1      7949     TIP3     H1       HT       0.417000        1.0080           0
     24258 WT1      7949     TIP3     H2       HT       0.417000        1.0080           0
     24259 WT1      7950     TIP3     OH2      OT      -0.834000       15.9994           0
     24260 WT1      7950     TIP3     H1       HT       0.417000        1.0080           0
     24261 WT1      7950     TIP3     H2       HT       0.417000        1.0080           0
     24262 WT1      7951     TIP3     OH2      OT      -0.834000       15.9994           0
     24263 WT1      7951     TIP3     H1       HT       0.417000        1.0080           0
     24264 WT1      7951     TIP3     H2       HT       0.417000        1.0080           0
     24265 WT1      7952     TIP3     OH2      OT      -0.834000       15.9994           0
     24266 WT1      7952     TIP3     H1       HT       0.417000        1.0080           0
     24267 WT1      7952     TIP3     H2       HT       0.417000        1.0080           0
     24268 WT1      7953     TIP3     OH2      OT      -0.834000       15.9994           0
     24269 WT1      7953     TIP3     H1       HT       0.417000        1.0080           0
     24270 WT1      7953     TIP3     H2       HT       0.417000        1.0080           0
     24271 WT1      7954     TIP3     OH2      OT      -0.834000       15.9994           0
     24272 WT1      7954     TIP3     H1       HT       0.417000        1.0080           0
     24273 WT1      7954     TIP3     H2       HT       0.417000        1.0080           0
     24274 WT1      7955     TIP3     OH2      OT      -0.834000       15.9994           0
     24275 WT1      7955     TIP3     H1       HT       0.417000        1.0080           0
     24276 WT1      7955     TIP3     H2       HT       0.417000        1.0080           0
     24277 WT1      7956     TIP3     OH2      OT      -0.834000       15.9994           0
     24278 WT1      7956     TIP3     H1       HT       0.417000        1.0080           0
     24279 WT1      7956     TIP3     H2       HT       0.417000        1.0080           0
     24280 WT1      7957     TIP3     OH2      OT      -0.834000       15.9994           0
     24281 WT1      7957     TIP3     H1       HT       0.417000        1.0080           0
     24282 WT1      7957     TIP3     H2       HT       0.417000        1.0080           0
     24283 WT1      7958     TIP3     OH2      OT      -0.834000       15.9994           0
     24284 WT1      7958     TIP3     H1       HT       0.417000        1.0080           0
     24285 WT1      7958     TIP3     H2       HT       0.417000        1.0080           0
     24286 WT1      7959     TIP3     OH2      OT      -0.834000       15.9994           0
     24287 WT1      7959     TIP3     H1       HT       0.417000        1.0080           0
     24288 WT1      7959     TIP3     H2       HT       0.417000        1.0080           0
     24289 WT1      7960     TIP3     OH2      OT      -0.834000       15.9994           0
     24290 WT1      7960     TIP3     H1       HT       0.417000        1.0080           0
     24291 WT1      7960     TIP3     H2       HT       0.417000        1.0080           0
     24292 WT1      7962     TIP3     OH2      OT      -0.834000       15.9994           0
     24293 WT1      7962     TIP3     H1       HT       0.417000        1.0080           0
     24294 WT1      7962     TIP3     H2       HT       0.417000        1.0080           0
     24295 WT1      7963     TIP3     OH2      OT      -0.834000       15.9994           0
     24296 WT1      7963     TIP3     H1       HT       0.417000        1.0080           0
     24297 WT1      7963     TIP3     H2       HT       0.417000        1.0080           0
     24298 WT1      7964     TIP3     OH2      OT      -0.834000       15.9994           0
     24299 WT1      7964     TIP3     H1       HT       0.417000        1.0080           0
     24300 WT1      7964     TIP3     H2       HT       0.417000        1.0080           0
     24301 WT1      7965     TIP3     OH2      OT      -0.834000       15.9994           0
     24302 WT1      7965     TIP3     H1       HT       0.417000        1.0080           0
     24303 WT1      7965     TIP3     H2       HT       0.417000        1.0080           0
     24304 WT1      7966     TIP3     OH2      OT      -0.834000       15.9994           0
     24305 WT1      7966     TIP3     H1       HT       0.417000        1.0080           0
     24306 WT1      7966     TIP3     H2       HT       0.417000        1.0080           0
     24307 WT1      7967     TIP3     OH2      OT      -0.834000       15.9994           0
     24308 WT1      7967     TIP3     H1       HT       0.417000        1.0080           0
     24309 WT1      7967     TIP3     H2       HT       0.417000        1.0080           0
     24310 WT1      7968     TIP3     OH2      OT      -0.834000       15.9994           0
     24311 WT1      7968     TIP3     H1       HT       0.417000        1.0080           0
     24312 WT1      7968     TIP3     H2       HT       0.417000        1.0080           0
     24313 WT1      7969     TIP3     OH2      OT      -0.834000       15.9994           0
     24314 WT1      7969     TIP3     H1       HT       0.417000        1.0080           0
     24315 WT1      7969     TIP3     H2       HT       0.417000        1.0080           0
     24316 WT1      7970     TIP3     OH2      OT      -0.834000       15.9994           0
     24317 WT1      7970     TIP3     H1       HT       0.417000        1.0080           0
     24318 WT1      7970     TIP3     H2       HT       0.417000        1.0080           0
     24319 WT1      7971     TIP3     OH2      OT      -0.834000       15.9994           0
     24320 WT1      7971     TIP3     H1       HT       0.417000        1.0080           0
     24321 WT1      7971     TIP3     H2       HT       0.417000        1.0080           0
     24322 WT1      7972     TIP3     OH2      OT      -0.834000       15.9994           0
     24323 WT1      7972     TIP3     H1       HT       0.417000        1.0080           0
     24324 WT1      7972     TIP3     H2       HT       0.417000        1.0080           0
     24325 WT1      7973     TIP3     OH2      OT      -0.834000       15.9994           0
     24326 WT1      7973     TIP3     H1       HT       0.417000        1.0080           0
     24327 WT1      7973     TIP3     H2       HT       0.417000        1.0080           0
     24328 WT1      7974     TIP3     OH2      OT      -0.834000       15.9994           0
     24329 WT1      7974     TIP3     H1       HT       0.417000        1.0080           0
     24330 WT1      7974     TIP3     H2       HT       0.417000        1.0080           0
     24331 WT1      7975     TIP3     OH2      OT      -0.834000       15.9994           0
     24332 WT1      7975     TIP3     H1       HT       0.417000        1.0080           0
     24333 WT1      7975     TIP3     H2       HT       0.417000        1.0080           0
     24334 WT1      7976     TIP3     OH2      OT      -0.834000       15.9994           0
     24335 WT1      7976     TIP3     H1       HT       0.417000        1.0080           0
     24336 WT1      7976     TIP3     H2       HT       0.417000        1.0080           0
     24337 WT1      7977     TIP3     OH2      OT      -0.834000       15.9994           0
     24338 WT1      7977     TIP3     H1       HT       0.417000        1.0080           0
     24339 WT1      7977     TIP3     H2       HT       0.417000        1.0080           0
     24340 WT1      7978     TIP3     OH2      OT      -0.834000       15.9994           0
     24341 WT1      7978     TIP3     H1       HT       0.417000        1.0080           0
     24342 WT1      7978     TIP3     H2       HT       0.417000        1.0080           0
     24343 WT1      7979     TIP3     OH2      OT      -0.834000       15.9994           0
     24344 WT1      7979     TIP3     H1       HT       0.417000        1.0080           0
     24345 WT1      7979     TIP3     H2       HT       0.417000        1.0080           0
     24346 WT1      7980     TIP3     OH2      OT      -0.834000       15.9994           0
     24347 WT1      7980     TIP3     H1       HT       0.417000        1.0080           0
     24348 WT1      7980     TIP3     H2       HT       0.417000        1.0080           0
     24349 WT1      7981     TIP3     OH2      OT      -0.834000       15.9994           0
     24350 WT1      7981     TIP3     H1       HT       0.417000        1.0080           0
     24351 WT1      7981     TIP3     H2       HT       0.417000        1.0080           0
     24352 WT1      7982     TIP3     OH2      OT      -0.834000       15.9994           0
     24353 WT1      7982     TIP3     H1       HT       0.417000        1.0080           0
     24354 WT1      7982     TIP3     H2       HT       0.417000        1.0080           0
     24355 WT1      7983     TIP3     OH2      OT      -0.834000       15.9994           0
     24356 WT1      7983     TIP3     H1       HT       0.417000        1.0080           0
     24357 WT1      7983     TIP3     H2       HT       0.417000        1.0080           0
     24358 WT1      7984     TIP3     OH2      OT      -0.834000       15.9994           0
     24359 WT1      7984     TIP3     H1       HT       0.417000        1.0080           0
     24360 WT1      7984     TIP3     H2       HT       0.417000        1.0080           0
     24361 WT1      7985     TIP3     OH2      OT      -0.834000       15.9994           0
     24362 WT1      7985     TIP3     H1       HT       0.417000        1.0080           0
     24363 WT1      7985     TIP3     H2       HT       0.417000        1.0080           0
     24364 WT1      7986     TIP3     OH2      OT      -0.834000       15.9994           0
     24365 WT1      7986     TIP3     H1       HT       0.417000        1.0080           0
     24366 WT1      7986     TIP3     H2       HT       0.417000        1.0080           0
     24367 WT1      7987     TIP3     OH2      OT      -0.834000       15.9994           0
     24368 WT1      7987     TIP3     H1       HT       0.417000        1.0080           0
     24369 WT1      7987     TIP3     H2       HT       0.417000        1.0080           0
     24370 WT1      7988     TIP3     OH2      OT      -0.834000       15.9994           0
     24371 WT1      7988     TIP3     H1       HT       0.417000        1.0080           0
     24372 WT1      7988     TIP3     H2       HT       0.417000        1.0080           0
     24373 WT1      7989     TIP3     OH2      OT      -0.834000       15.9994           0
     24374 WT1      7989     TIP3     H1       HT       0.417000        1.0080           0
     24375 WT1      7989     TIP3     H2       HT       0.417000        1.0080           0
     24376 WT1      7990     TIP3     OH2      OT      -0.834000       15.9994           0
     24377 WT1      7990     TIP3     H1       HT       0.417000        1.0080           0
     24378 WT1      7990     TIP3     H2       HT       0.417000        1.0080           0
     24379 WT1      7991     TIP3     OH2      OT      -0.834000       15.9994           0
     24380 WT1      7991     TIP3     H1       HT       0.417000        1.0080           0
     24381 WT1      7991     TIP3     H2       HT       0.417000        1.0080           0
     24382 WT1      7992     TIP3     OH2      OT      -0.834000       15.9994           0
     24383 WT1      7992     TIP3     H1       HT       0.417000        1.0080           0
     24384 WT1      7992     TIP3     H2       HT       0.417000        1.0080           0
     24385 WT1      7993     TIP3     OH2      OT      -0.834000       15.9994           0
     24386 WT1      7993     TIP3     H1       HT       0.417000        1.0080           0
     24387 WT1      7993     TIP3     H2       HT       0.417000        1.0080           0
     24388 WT1      7994     TIP3     OH2      OT      -0.834000       15.9994           0
     24389 WT1      7994     TIP3     H1       HT       0.417000        1.0080           0
     24390 WT1      7994     TIP3     H2       HT       0.417000        1.0080           0
     24391 WT1      7995     TIP3     OH2      OT      -0.834000       15.9994           0
     24392 WT1      7995     TIP3     H1       HT       0.417000        1.0080           0
     24393 WT1      7995     TIP3     H2       HT       0.417000        1.0080           0
     24394 WT1      7996     TIP3     OH2      OT      -0.834000       15.9994           0
     24395 WT1      7996     TIP3     H1       HT       0.417000        1.0080           0
     24396 WT1      7996     TIP3     H2       HT       0.417000        1.0080           0
     24397 WT1      7997     TIP3     OH2      OT      -0.834000       15.9994           0
     24398 WT1      7997     TIP3     H1       HT       0.417000        1.0080           0
     24399 WT1      7997     TIP3     H2       HT       0.417000        1.0080           0
     24400 WT1      7999     TIP3     OH2      OT      -0.834000       15.9994           0
     24401 WT1      7999     TIP3     H1       HT       0.417000        1.0080           0
     24402 WT1      7999     TIP3     H2       HT       0.417000        1.0080           0
     24403 WT1      8000     TIP3     OH2      OT      -0.834000       15.9994           0
     24404 WT1      8000     TIP3     H1       HT       0.417000        1.0080           0
     24405 WT1      8000     TIP3     H2       HT       0.417000        1.0080           0
     24406 WT1      8001     TIP3     OH2      OT      -0.834000       15.9994           0
     24407 WT1      8001     TIP3     H1       HT       0.417000        1.0080           0
     24408 WT1      8001     TIP3     H2       HT       0.417000        1.0080           0
     24409 WT1      8002     TIP3     OH2      OT      -0.834000       15.9994           0
     24410 WT1      8002     TIP3     H1       HT       0.417000        1.0080           0
     24411 WT1      8002     TIP3     H2       HT       0.417000        1.0080           0
     24412 WT1      8003     TIP3     OH2      OT      -0.834000       15.9994           0
     24413 WT1      8003     TIP3     H1       HT       0.417000        1.0080           0
     24414 WT1      8003     TIP3     H2       HT       0.417000        1.0080           0
     24415 WT1      8004     TIP3     OH2      OT      -0.834000       15.9994           0
     24416 WT1      8004     TIP3     H1       HT       0.417000        1.0080           0
     24417 WT1      8004     TIP3     H2       HT       0.417000        1.0080           0
     24418 WT1      8005     TIP3     OH2      OT      -0.834000       15.9994           0
     24419 WT1      8005     TIP3     H1       HT       0.417000        1.0080           0
     24420 WT1      8005     TIP3     H2       HT       0.417000        1.0080           0
     24421 WT1      8006     TIP3     OH2      OT      -0.834000       15.9994           0
     24422 WT1      8006     TIP3     H1       HT       0.417000        1.0080           0
     24423 WT1      8006     TIP3     H2       HT       0.417000        1.0080           0
     24424 WT1      8007     TIP3     OH2      OT      -0.834000       15.9994           0
     24425 WT1      8007     TIP3     H1       HT       0.417000        1.0080           0
     24426 WT1      8007     TIP3     H2       HT       0.417000        1.0080           0
     24427 WT1      8008     TIP3     OH2      OT      -0.834000       15.9994           0
     24428 WT1      8008     TIP3     H1       HT       0.417000        1.0080           0
     24429 WT1      8008     TIP3     H2       HT       0.417000        1.0080           0
     24430 WT1      8010     TIP3     OH2      OT      -0.834000       15.9994           0
     24431 WT1      8010     TIP3     H1       HT       0.417000        1.0080           0
     24432 WT1      8010     TIP3     H2       HT       0.417000        1.0080           0
     24433 WT1      8011     TIP3     OH2      OT      -0.834000       15.9994           0
     24434 WT1      8011     TIP3     H1       HT       0.417000        1.0080           0
     24435 WT1      8011     TIP3     H2       HT       0.417000        1.0080           0
     24436 WT1      8012     TIP3     OH2      OT      -0.834000       15.9994           0
     24437 WT1      8012     TIP3     H1       HT       0.417000        1.0080           0
     24438 WT1      8012     TIP3     H2       HT       0.417000        1.0080           0
     24439 WT1      8013     TIP3     OH2      OT      -0.834000       15.9994           0
     24440 WT1      8013     TIP3     H1       HT       0.417000        1.0080           0
     24441 WT1      8013     TIP3     H2       HT       0.417000        1.0080           0
     24442 WT1      8014     TIP3     OH2      OT      -0.834000       15.9994           0
     24443 WT1      8014     TIP3     H1       HT       0.417000        1.0080           0
     24444 WT1      8014     TIP3     H2       HT       0.417000        1.0080           0
     24445 WT1      8015     TIP3     OH2      OT      -0.834000       15.9994           0
     24446 WT1      8015     TIP3     H1       HT       0.417000        1.0080           0
     24447 WT1      8015     TIP3     H2       HT       0.417000        1.0080           0
     24448 WT1      8016     TIP3     OH2      OT      -0.834000       15.9994           0
     24449 WT1      8016     TIP3     H1       HT       0.417000        1.0080           0
     24450 WT1      8016     TIP3     H2       HT       0.417000        1.0080           0
     24451 WT1      8017     TIP3     OH2      OT      -0.834000       15.9994           0
     24452 WT1      8017     TIP3     H1       HT       0.417000        1.0080           0
     24453 WT1      8017     TIP3     H2       HT       0.417000        1.0080           0
     24454 WT1      8018     TIP3     OH2      OT      -0.834000       15.9994           0
     24455 WT1      8018     TIP3     H1       HT       0.417000        1.0080           0
     24456 WT1      8018     TIP3     H2       HT       0.417000        1.0080           0
     24457 WT1      8019     TIP3     OH2      OT      -0.834000       15.9994           0
     24458 WT1      8019     TIP3     H1       HT       0.417000        1.0080           0
     24459 WT1      8019     TIP3     H2       HT       0.417000        1.0080           0
     24460 WT1      8020     TIP3     OH2      OT      -0.834000       15.9994           0
     24461 WT1      8020     TIP3     H1       HT       0.417000        1.0080           0
     24462 WT1      8020     TIP3     H2       HT       0.417000        1.0080           0
     24463 WT1      8021     TIP3     OH2      OT      -0.834000       15.9994           0
     24464 WT1      8021     TIP3     H1       HT       0.417000        1.0080           0
     24465 WT1      8021     TIP3     H2       HT       0.417000        1.0080           0
     24466 WT1      8022     TIP3     OH2      OT      -0.834000       15.9994           0
     24467 WT1      8022     TIP3     H1       HT       0.417000        1.0080           0
     24468 WT1      8022     TIP3     H2       HT       0.417000        1.0080           0
     24469 WT1      8023     TIP3     OH2      OT      -0.834000       15.9994           0
     24470 WT1      8023     TIP3     H1       HT       0.417000        1.0080           0
     24471 WT1      8023     TIP3     H2       HT       0.417000        1.0080           0
     24472 WT1      8024     TIP3     OH2      OT      -0.834000       15.9994           0
     24473 WT1      8024     TIP3     H1       HT       0.417000        1.0080           0
     24474 WT1      8024     TIP3     H2       HT       0.417000        1.0080           0
     24475 WT1      8025     TIP3     OH2      OT      -0.834000       15.9994           0
     24476 WT1      8025     TIP3     H1       HT       0.417000        1.0080           0
     24477 WT1      8025     TIP3     H2       HT       0.417000        1.0080           0
     24478 WT1      8026     TIP3     OH2      OT      -0.834000       15.9994           0
     24479 WT1      8026     TIP3     H1       HT       0.417000        1.0080           0
     24480 WT1      8026     TIP3     H2       HT       0.417000        1.0080           0
     24481 WT1      8027     TIP3     OH2      OT      -0.834000       15.9994           0
     24482 WT1      8027     TIP3     H1       HT       0.417000        1.0080           0
     24483 WT1      8027     TIP3     H2       HT       0.417000        1.0080           0
     24484 WT1      8028     TIP3     OH2      OT      -0.834000       15.9994           0
     24485 WT1      8028     TIP3     H1       HT       0.417000        1.0080           0
     24486 WT1      8028     TIP3     H2       HT       0.417000        1.0080           0
     24487 WT1      8029     TIP3     OH2      OT      -0.834000       15.9994           0
     24488 WT1      8029     TIP3     H1       HT       0.417000        1.0080           0
     24489 WT1      8029     TIP3     H2       HT       0.417000        1.0080           0
     24490 WT1      8030     TIP3     OH2      OT      -0.834000       15.9994           0
     24491 WT1      8030     TIP3     H1       HT       0.417000        1.0080           0
     24492 WT1      8030     TIP3     H2       HT       0.417000        1.0080           0
     24493 WT1      8032     TIP3     OH2      OT      -0.834000       15.9994           0
     24494 WT1      8032     TIP3     H1       HT       0.417000        1.0080           0
     24495 WT1      8032     TIP3     H2       HT       0.417000        1.0080           0
     24496 WT1      8033     TIP3     OH2      OT      -0.834000       15.9994           0
     24497 WT1      8033     TIP3     H1       HT       0.417000        1.0080           0
     24498 WT1      8033     TIP3     H2       HT       0.417000        1.0080           0
     24499 WT1      8034     TIP3     OH2      OT      -0.834000       15.9994           0
     24500 WT1      8034     TIP3     H1       HT       0.417000        1.0080           0
     24501 WT1      8034     TIP3     H2       HT       0.417000        1.0080           0
     24502 WT1      8035     TIP3     OH2      OT      -0.834000       15.9994           0
     24503 WT1      8035     TIP3     H1       HT       0.417000        1.0080           0
     24504 WT1      8035     TIP3     H2       HT       0.417000        1.0080           0
     24505 WT1      8036     TIP3     OH2      OT      -0.834000       15.9994           0
     24506 WT1      8036     TIP3     H1       HT       0.417000        1.0080           0
     24507 WT1      8036     TIP3     H2       HT       0.417000        1.0080           0
     24508 WT1      8037     TIP3     OH2      OT      -0.834000       15.9994           0
     24509 WT1      8037     TIP3     H1       HT       0.417000        1.0080           0
     24510 WT1      8037     TIP3     H2       HT       0.417000        1.0080           0
     24511 WT1      8038     TIP3     OH2      OT      -0.834000       15.9994           0
     24512 WT1      8038     TIP3     H1       HT       0.417000        1.0080           0
     24513 WT1      8038     TIP3     H2       HT       0.417000        1.0080           0
     24514 WT1      8039     TIP3     OH2      OT      -0.834000       15.9994           0
     24515 WT1      8039     TIP3     H1       HT       0.417000        1.0080           0
     24516 WT1      8039     TIP3     H2       HT       0.417000        1.0080           0
     24517 WT1      8040     TIP3     OH2      OT      -0.834000       15.9994           0
     24518 WT1      8040     TIP3     H1       HT       0.417000        1.0080           0
     24519 WT1      8040     TIP3     H2       HT       0.417000        1.0080           0
     24520 WT1      8041     TIP3     OH2      OT      -0.834000       15.9994           0
     24521 WT1      8041     TIP3     H1       HT       0.417000        1.0080           0
     24522 WT1      8041     TIP3     H2       HT       0.417000        1.0080           0
     24523 WT1      8042     TIP3     OH2      OT      -0.834000       15.9994           0
     24524 WT1      8042     TIP3     H1       HT       0.417000        1.0080           0
     24525 WT1      8042     TIP3     H2       HT       0.417000        1.0080           0
     24526 WT1      8043     TIP3     OH2      OT      -0.834000       15.9994           0
     24527 WT1      8043     TIP3     H1       HT       0.417000        1.0080           0
     24528 WT1      8043     TIP3     H2       HT       0.417000        1.0080           0
     24529 WT1      8044     TIP3     OH2      OT      -0.834000       15.9994           0
     24530 WT1      8044     TIP3     H1       HT       0.417000        1.0080           0
     24531 WT1      8044     TIP3     H2       HT       0.417000        1.0080           0
     24532 WT1      8045     TIP3     OH2      OT      -0.834000       15.9994           0
     24533 WT1      8045     TIP3     H1       HT       0.417000        1.0080           0
     24534 WT1      8045     TIP3     H2       HT       0.417000        1.0080           0
     24535 WT1      8046     TIP3     OH2      OT      -0.834000       15.9994           0
     24536 WT1      8046     TIP3     H1       HT       0.417000        1.0080           0
     24537 WT1      8046     TIP3     H2       HT       0.417000        1.0080           0
     24538 WT1      8047     TIP3     OH2      OT      -0.834000       15.9994           0
     24539 WT1      8047     TIP3     H1       HT       0.417000        1.0080           0
     24540 WT1      8047     TIP3     H2       HT       0.417000        1.0080           0
     24541 WT1      8048     TIP3     OH2      OT      -0.834000       15.9994           0
     24542 WT1      8048     TIP3     H1       HT       0.417000        1.0080           0
     24543 WT1      8048     TIP3     H2       HT       0.417000        1.0080           0
     24544 WT1      8049     TIP3     OH2      OT      -0.834000       15.9994           0
     24545 WT1      8049     TIP3     H1       HT       0.417000        1.0080           0
     24546 WT1      8049     TIP3     H2       HT       0.417000        1.0080           0
     24547 WT1      8050     TIP3     OH2      OT      -0.834000       15.9994           0
     24548 WT1      8050     TIP3     H1       HT       0.417000        1.0080           0
     24549 WT1      8050     TIP3     H2       HT       0.417000        1.0080           0
     24550 WT1      8051     TIP3     OH2      OT      -0.834000       15.9994           0
     24551 WT1      8051     TIP3     H1       HT       0.417000        1.0080           0
     24552 WT1      8051     TIP3     H2       HT       0.417000        1.0080           0
     24553 WT1      8052     TIP3     OH2      OT      -0.834000       15.9994           0
     24554 WT1      8052     TIP3     H1       HT       0.417000        1.0080           0
     24555 WT1      8052     TIP3     H2       HT       0.417000        1.0080           0
     24556 WT1      8053     TIP3     OH2      OT      -0.834000       15.9994           0
     24557 WT1      8053     TIP3     H1       HT       0.417000        1.0080           0
     24558 WT1      8053     TIP3     H2       HT       0.417000        1.0080           0
     24559 WT1      8054     TIP3     OH2      OT      -0.834000       15.9994           0
     24560 WT1      8054     TIP3     H1       HT       0.417000        1.0080           0
     24561 WT1      8054     TIP3     H2       HT       0.417000        1.0080           0
     24562 WT1      8055     TIP3     OH2      OT      -0.834000       15.9994           0
     24563 WT1      8055     TIP3     H1       HT       0.417000        1.0080           0
     24564 WT1      8055     TIP3     H2       HT       0.417000        1.0080           0
     24565 WT1      8056     TIP3     OH2      OT      -0.834000       15.9994           0
     24566 WT1      8056     TIP3     H1       HT       0.417000        1.0080           0
     24567 WT1      8056     TIP3     H2       HT       0.417000        1.0080           0
     24568 WT1      8057     TIP3     OH2      OT      -0.834000       15.9994           0
     24569 WT1      8057     TIP3     H1       HT       0.417000        1.0080           0
     24570 WT1      8057     TIP3     H2       HT       0.417000        1.0080           0
     24571 WT1      8058     TIP3     OH2      OT      -0.834000       15.9994           0
     24572 WT1      8058     TIP3     H1       HT       0.417000        1.0080           0
     24573 WT1      8058     TIP3     H2       HT       0.417000        1.0080           0
     24574 WT1      8059     TIP3     OH2      OT      -0.834000       15.9994           0
     24575 WT1      8059     TIP3     H1       HT       0.417000        1.0080           0
     24576 WT1      8059     TIP3     H2       HT       0.417000        1.0080           0
     24577 WT1      8060     TIP3     OH2      OT      -0.834000       15.9994           0
     24578 WT1      8060     TIP3     H1       HT       0.417000        1.0080           0
     24579 WT1      8060     TIP3     H2       HT       0.417000        1.0080           0
     24580 WT1      8061     TIP3     OH2      OT      -0.834000       15.9994           0
     24581 WT1      8061     TIP3     H1       HT       0.417000        1.0080           0
     24582 WT1      8061     TIP3     H2       HT       0.417000        1.0080           0
     24583 WT1      8062     TIP3     OH2      OT      -0.834000       15.9994           0
     24584 WT1      8062     TIP3     H1       HT       0.417000        1.0080           0
     24585 WT1      8062     TIP3     H2       HT       0.417000        1.0080           0
     24586 WT1      8063     TIP3     OH2      OT      -0.834000       15.9994           0
     24587 WT1      8063     TIP3     H1       HT       0.417000        1.0080           0
     24588 WT1      8063     TIP3     H2       HT       0.417000        1.0080           0
     24589 WT1      8064     TIP3     OH2      OT      -0.834000       15.9994           0
     24590 WT1      8064     TIP3     H1       HT       0.417000        1.0080           0
     24591 WT1      8064     TIP3     H2       HT       0.417000        1.0080           0
     24592 WT1      8065     TIP3     OH2      OT      -0.834000       15.9994           0
     24593 WT1      8065     TIP3     H1       HT       0.417000        1.0080           0
     24594 WT1      8065     TIP3     H2       HT       0.417000        1.0080           0
     24595 WT1      8066     TIP3     OH2      OT      -0.834000       15.9994           0
     24596 WT1      8066     TIP3     H1       HT       0.417000        1.0080           0
     24597 WT1      8066     TIP3     H2       HT       0.417000        1.0080           0
     24598 WT1      8067     TIP3     OH2      OT      -0.834000       15.9994           0
     24599 WT1      8067     TIP3     H1       HT       0.417000        1.0080           0
     24600 WT1      8067     TIP3     H2       HT       0.417000        1.0080           0
     24601 WT1      8068     TIP3     OH2      OT      -0.834000       15.9994           0
     24602 WT1      8068     TIP3     H1       HT       0.417000        1.0080           0
     24603 WT1      8068     TIP3     H2       HT       0.417000        1.0080           0
     24604 WT1      8069     TIP3     OH2      OT      -0.834000       15.9994           0
     24605 WT1      8069     TIP3     H1       HT       0.417000        1.0080           0
     24606 WT1      8069     TIP3     H2       HT       0.417000        1.0080           0
     24607 WT1      8070     TIP3     OH2      OT      -0.834000       15.9994           0
     24608 WT1      8070     TIP3     H1       HT       0.417000        1.0080           0
     24609 WT1      8070     TIP3     H2       HT       0.417000        1.0080           0
     24610 WT1      8071     TIP3     OH2      OT      -0.834000       15.9994           0
     24611 WT1      8071     TIP3     H1       HT       0.417000        1.0080           0
     24612 WT1      8071     TIP3     H2       HT       0.417000        1.0080           0
     24613 WT1      8072     TIP3     OH2      OT      -0.834000       15.9994           0
     24614 WT1      8072     TIP3     H1       HT       0.417000        1.0080           0
     24615 WT1      8072     TIP3     H2       HT       0.417000        1.0080           0
     24616 WT1      8073     TIP3     OH2      OT      -0.834000       15.9994           0
     24617 WT1      8073     TIP3     H1       HT       0.417000        1.0080           0
     24618 WT1      8073     TIP3     H2       HT       0.417000        1.0080           0
     24619 WT1      8074     TIP3     OH2      OT      -0.834000       15.9994           0
     24620 WT1      8074     TIP3     H1       HT       0.417000        1.0080           0
     24621 WT1      8074     TIP3     H2       HT       0.417000        1.0080           0
     24622 WT1      8075     TIP3     OH2      OT      -0.834000       15.9994           0
     24623 WT1      8075     TIP3     H1       HT       0.417000        1.0080           0
     24624 WT1      8075     TIP3     H2       HT       0.417000        1.0080           0
     24625 WT1      8076     TIP3     OH2      OT      -0.834000       15.9994           0
     24626 WT1      8076     TIP3     H1       HT       0.417000        1.0080           0
     24627 WT1      8076     TIP3     H2       HT       0.417000        1.0080           0
     24628 WT1      8077     TIP3     OH2      OT      -0.834000       15.9994           0
     24629 WT1      8077     TIP3     H1       HT       0.417000        1.0080           0
     24630 WT1      8077     TIP3     H2       HT       0.417000        1.0080           0
     24631 WT1      8078     TIP3     OH2      OT      -0.834000       15.9994           0
     24632 WT1      8078     TIP3     H1       HT       0.417000        1.0080           0
     24633 WT1      8078     TIP3     H2       HT       0.417000        1.0080           0
     24634 WT1      8079     TIP3     OH2      OT      -0.834000       15.9994           0
     24635 WT1      8079     TIP3     H1       HT       0.417000        1.0080           0
     24636 WT1      8079     TIP3     H2       HT       0.417000        1.0080           0
     24637 WT1      8080     TIP3     OH2      OT      -0.834000       15.9994           0
     24638 WT1      8080     TIP3     H1       HT       0.417000        1.0080           0
     24639 WT1      8080     TIP3     H2       HT       0.417000        1.0080           0
     24640 WT1      8081     TIP3     OH2      OT      -0.834000       15.9994           0
     24641 WT1      8081     TIP3     H1       HT       0.417000        1.0080           0
     24642 WT1      8081     TIP3     H2       HT       0.417000        1.0080           0
     24643 WT1      8082     TIP3     OH2      OT      -0.834000       15.9994           0
     24644 WT1      8082     TIP3     H1       HT       0.417000        1.0080           0
     24645 WT1      8082     TIP3     H2       HT       0.417000        1.0080           0
     24646 WT1      8083     TIP3     OH2      OT      -0.834000       15.9994           0
     24647 WT1      8083     TIP3     H1       HT       0.417000        1.0080           0
     24648 WT1      8083     TIP3     H2       HT       0.417000        1.0080           0
     24649 WT1      8084     TIP3     OH2      OT      -0.834000       15.9994           0
     24650 WT1      8084     TIP3     H1       HT       0.417000        1.0080           0
     24651 WT1      8084     TIP3     H2       HT       0.417000        1.0080           0
     24652 WT1      8085     TIP3     OH2      OT      -0.834000       15.9994           0
     24653 WT1      8085     TIP3     H1       HT       0.417000        1.0080           0
     24654 WT1      8085     TIP3     H2       HT       0.417000        1.0080           0
     24655 WT1      8086     TIP3     OH2      OT      -0.834000       15.9994           0
     24656 WT1      8086     TIP3     H1       HT       0.417000        1.0080           0
     24657 WT1      8086     TIP3     H2       HT       0.417000        1.0080           0
     24658 WT1      8087     TIP3     OH2      OT      -0.834000       15.9994           0
     24659 WT1      8087     TIP3     H1       HT       0.417000        1.0080           0
     24660 WT1      8087     TIP3     H2       HT       0.417000        1.0080           0
     24661 WT1      8088     TIP3     OH2      OT      -0.834000       15.9994           0
     24662 WT1      8088     TIP3     H1       HT       0.417000        1.0080           0
     24663 WT1      8088     TIP3     H2       HT       0.417000        1.0080           0
     24664 WT1      8089     TIP3     OH2      OT      -0.834000       15.9994           0
     24665 WT1      8089     TIP3     H1       HT       0.417000        1.0080           0
     24666 WT1      8089     TIP3     H2       HT       0.417000        1.0080           0
     24667 WT1      8090     TIP3     OH2      OT      -0.834000       15.9994           0
     24668 WT1      8090     TIP3     H1       HT       0.417000        1.0080           0
     24669 WT1      8090     TIP3     H2       HT       0.417000        1.0080           0
     24670 WT1      8091     TIP3     OH2      OT      -0.834000       15.9994           0
     24671 WT1      8091     TIP3     H1       HT       0.417000        1.0080           0
     24672 WT1      8091     TIP3     H2       HT       0.417000        1.0080           0
     24673 WT1      8092     TIP3     OH2      OT      -0.834000       15.9994           0
     24674 WT1      8092     TIP3     H1       HT       0.417000        1.0080           0
     24675 WT1      8092     TIP3     H2       HT       0.417000        1.0080           0
     24676 WT1      8093     TIP3     OH2      OT      -0.834000       15.9994           0
     24677 WT1      8093     TIP3     H1       HT       0.417000        1.0080           0
     24678 WT1      8093     TIP3     H2       HT       0.417000        1.0080           0
     24679 WT1      8094     TIP3     OH2      OT      -0.834000       15.9994           0
     24680 WT1      8094     TIP3     H1       HT       0.417000        1.0080           0
     24681 WT1      8094     TIP3     H2       HT       0.417000        1.0080           0
     24682 WT1      8095     TIP3     OH2      OT      -0.834000       15.9994           0
     24683 WT1      8095     TIP3     H1       HT       0.417000        1.0080           0
     24684 WT1      8095     TIP3     H2       HT       0.417000        1.0080           0
     24685 WT1      8096     TIP3     OH2      OT      -0.834000       15.9994           0
     24686 WT1      8096     TIP3     H1       HT       0.417000        1.0080           0
     24687 WT1      8096     TIP3     H2       HT       0.417000        1.0080           0
     24688 WT1      8097     TIP3     OH2      OT      -0.834000       15.9994           0
     24689 WT1      8097     TIP3     H1       HT       0.417000        1.0080           0
     24690 WT1      8097     TIP3     H2       HT       0.417000        1.0080           0
     24691 WT1      8098     TIP3     OH2      OT      -0.834000       15.9994           0
     24692 WT1      8098     TIP3     H1       HT       0.417000        1.0080           0
     24693 WT1      8098     TIP3     H2       HT       0.417000        1.0080           0
     24694 WT1      8099     TIP3     OH2      OT      -0.834000       15.9994           0
     24695 WT1      8099     TIP3     H1       HT       0.417000        1.0080           0
     24696 WT1      8099     TIP3     H2       HT       0.417000        1.0080           0
     24697 WT1      8100     TIP3     OH2      OT      -0.834000       15.9994           0
     24698 WT1      8100     TIP3     H1       HT       0.417000        1.0080           0
     24699 WT1      8100     TIP3     H2       HT       0.417000        1.0080           0
     24700 WT1      8101     TIP3     OH2      OT      -0.834000       15.9994           0
     24701 WT1      8101     TIP3     H1       HT       0.417000        1.0080           0
     24702 WT1      8101     TIP3     H2       HT       0.417000        1.0080           0
     24703 WT1      8102     TIP3     OH2      OT      -0.834000       15.9994           0
     24704 WT1      8102     TIP3     H1       HT       0.417000        1.0080           0
     24705 WT1      8102     TIP3     H2       HT       0.417000        1.0080           0
     24706 WT1      8103     TIP3     OH2      OT      -0.834000       15.9994           0
     24707 WT1      8103     TIP3     H1       HT       0.417000        1.0080           0
     24708 WT1      8103     TIP3     H2       HT       0.417000        1.0080           0
     24709 WT1      8104     TIP3     OH2      OT      -0.834000       15.9994           0
     24710 WT1      8104     TIP3     H1       HT       0.417000        1.0080           0
     24711 WT1      8104     TIP3     H2       HT       0.417000        1.0080           0
     24712 WT1      8105     TIP3     OH2      OT      -0.834000       15.9994           0
     24713 WT1      8105     TIP3     H1       HT       0.417000        1.0080           0
     24714 WT1      8105     TIP3     H2       HT       0.417000        1.0080           0
     24715 WT1      8106     TIP3     OH2      OT      -0.834000       15.9994           0
     24716 WT1      8106     TIP3     H1       HT       0.417000        1.0080           0
     24717 WT1      8106     TIP3     H2       HT       0.417000        1.0080           0
     24718 WT1      8107     TIP3     OH2      OT      -0.834000       15.9994           0
     24719 WT1      8107     TIP3     H1       HT       0.417000        1.0080           0
     24720 WT1      8107     TIP3     H2       HT       0.417000        1.0080           0
     24721 WT1      8108     TIP3     OH2      OT      -0.834000       15.9994           0
     24722 WT1      8108     TIP3     H1       HT       0.417000        1.0080           0
     24723 WT1      8108     TIP3     H2       HT       0.417000        1.0080           0
     24724 WT1      8109     TIP3     OH2      OT      -0.834000       15.9994           0
     24725 WT1      8109     TIP3     H1       HT       0.417000        1.0080           0
     24726 WT1      8109     TIP3     H2       HT       0.417000        1.0080           0
     24727 WT1      8110     TIP3     OH2      OT      -0.834000       15.9994           0
     24728 WT1      8110     TIP3     H1       HT       0.417000        1.0080           0
     24729 WT1      8110     TIP3     H2       HT       0.417000        1.0080           0
     24730 WT1      8111     TIP3     OH2      OT      -0.834000       15.9994           0
     24731 WT1      8111     TIP3     H1       HT       0.417000        1.0080           0
     24732 WT1      8111     TIP3     H2       HT       0.417000        1.0080           0
     24733 WT1      8112     TIP3     OH2      OT      -0.834000       15.9994           0
     24734 WT1      8112     TIP3     H1       HT       0.417000        1.0080           0
     24735 WT1      8112     TIP3     H2       HT       0.417000        1.0080           0
     24736 WT1      8113     TIP3     OH2      OT      -0.834000       15.9994           0
     24737 WT1      8113     TIP3     H1       HT       0.417000        1.0080           0
     24738 WT1      8113     TIP3     H2       HT       0.417000        1.0080           0
     24739 WT1      8114     TIP3     OH2      OT      -0.834000       15.9994           0
     24740 WT1      8114     TIP3     H1       HT       0.417000        1.0080           0
     24741 WT1      8114     TIP3     H2       HT       0.417000        1.0080           0
     24742 WT1      8115     TIP3     OH2      OT      -0.834000       15.9994           0
     24743 WT1      8115     TIP3     H1       HT       0.417000        1.0080           0
     24744 WT1      8115     TIP3     H2       HT       0.417000        1.0080           0
     24745 WT1      8116     TIP3     OH2      OT      -0.834000       15.9994           0
     24746 WT1      8116     TIP3     H1       HT       0.417000        1.0080           0
     24747 WT1      8116     TIP3     H2       HT       0.417000        1.0080           0
     24748 WT1      8117     TIP3     OH2      OT      -0.834000       15.9994           0
     24749 WT1      8117     TIP3     H1       HT       0.417000        1.0080           0
     24750 WT1      8117     TIP3     H2       HT       0.417000        1.0080           0
     24751 WT1      8118     TIP3     OH2      OT      -0.834000       15.9994           0
     24752 WT1      8118     TIP3     H1       HT       0.417000        1.0080           0
     24753 WT1      8118     TIP3     H2       HT       0.417000        1.0080           0
     24754 WT1      8119     TIP3     OH2      OT      -0.834000       15.9994           0
     24755 WT1      8119     TIP3     H1       HT       0.417000        1.0080           0
     24756 WT1      8119     TIP3     H2       HT       0.417000        1.0080           0
     24757 WT1      8120     TIP3     OH2      OT      -0.834000       15.9994           0
     24758 WT1      8120     TIP3     H1       HT       0.417000        1.0080           0
     24759 WT1      8120     TIP3     H2       HT       0.417000        1.0080           0
     24760 WT1      8121     TIP3     OH2      OT      -0.834000       15.9994           0
     24761 WT1      8121     TIP3     H1       HT       0.417000        1.0080           0
     24762 WT1      8121     TIP3     H2       HT       0.417000        1.0080           0
     24763 WT1      8122     TIP3     OH2      OT      -0.834000       15.9994           0
     24764 WT1      8122     TIP3     H1       HT       0.417000        1.0080           0
     24765 WT1      8122     TIP3     H2       HT       0.417000        1.0080           0
     24766 WT1      8123     TIP3     OH2      OT      -0.834000       15.9994           0
     24767 WT1      8123     TIP3     H1       HT       0.417000        1.0080           0
     24768 WT1      8123     TIP3     H2       HT       0.417000        1.0080           0
     24769 WT1      8124     TIP3     OH2      OT      -0.834000       15.9994           0
     24770 WT1      8124     TIP3     H1       HT       0.417000        1.0080           0
     24771 WT1      8124     TIP3     H2       HT       0.417000        1.0080           0
     24772 WT1      8125     TIP3     OH2      OT      -0.834000       15.9994           0
     24773 WT1      8125     TIP3     H1       HT       0.417000        1.0080           0
     24774 WT1      8125     TIP3     H2       HT       0.417000        1.0080           0
     24775 WT1      8126     TIP3     OH2      OT      -0.834000       15.9994           0
     24776 WT1      8126     TIP3     H1       HT       0.417000        1.0080           0
     24777 WT1      8126     TIP3     H2       HT       0.417000        1.0080           0
     24778 WT1      8127     TIP3     OH2      OT      -0.834000       15.9994           0
     24779 WT1      8127     TIP3     H1       HT       0.417000        1.0080           0
     24780 WT1      8127     TIP3     H2       HT       0.417000        1.0080           0
     24781 WT1      8128     TIP3     OH2      OT      -0.834000       15.9994           0
     24782 WT1      8128     TIP3     H1       HT       0.417000        1.0080           0
     24783 WT1      8128     TIP3     H2       HT       0.417000        1.0080           0
     24784 WT1      8129     TIP3     OH2      OT      -0.834000       15.9994           0
     24785 WT1      8129     TIP3     H1       HT       0.417000        1.0080           0
     24786 WT1      8129     TIP3     H2       HT       0.417000        1.0080           0
     24787 WT1      8130     TIP3     OH2      OT      -0.834000       15.9994           0
     24788 WT1      8130     TIP3     H1       HT       0.417000        1.0080           0
     24789 WT1      8130     TIP3     H2       HT       0.417000        1.0080           0
     24790 WT1      8131     TIP3     OH2      OT      -0.834000       15.9994           0
     24791 WT1      8131     TIP3     H1       HT       0.417000        1.0080           0
     24792 WT1      8131     TIP3     H2       HT       0.417000        1.0080           0
     24793 WT1      8132     TIP3     OH2      OT      -0.834000       15.9994           0
     24794 WT1      8132     TIP3     H1       HT       0.417000        1.0080           0
     24795 WT1      8132     TIP3     H2       HT       0.417000        1.0080           0
     24796 WT1      8133     TIP3     OH2      OT      -0.834000       15.9994           0
     24797 WT1      8133     TIP3     H1       HT       0.417000        1.0080           0
     24798 WT1      8133     TIP3     H2       HT       0.417000        1.0080           0
     24799 WT1      8134     TIP3     OH2      OT      -0.834000       15.9994           0
     24800 WT1      8134     TIP3     H1       HT       0.417000        1.0080           0
     24801 WT1      8134     TIP3     H2       HT       0.417000        1.0080           0
     24802 WT1      8135     TIP3     OH2      OT      -0.834000       15.9994           0
     24803 WT1      8135     TIP3     H1       HT       0.417000        1.0080           0
     24804 WT1      8135     TIP3     H2       HT       0.417000        1.0080           0
     24805 WT1      8136     TIP3     OH2      OT      -0.834000       15.9994           0
     24806 WT1      8136     TIP3     H1       HT       0.417000        1.0080           0
     24807 WT1      8136     TIP3     H2       HT       0.417000        1.0080           0
     24808 WT1      8137     TIP3     OH2      OT      -0.834000       15.9994           0
     24809 WT1      8137     TIP3     H1       HT       0.417000        1.0080           0
     24810 WT1      8137     TIP3     H2       HT       0.417000        1.0080           0
     24811 WT1      8138     TIP3     OH2      OT      -0.834000       15.9994           0
     24812 WT1      8138     TIP3     H1       HT       0.417000        1.0080           0
     24813 WT1      8138     TIP3     H2       HT       0.417000        1.0080           0
     24814 WT1      8139     TIP3     OH2      OT      -0.834000       15.9994           0
     24815 WT1      8139     TIP3     H1       HT       0.417000        1.0080           0
     24816 WT1      8139     TIP3     H2       HT       0.417000        1.0080           0
     24817 WT1      8140     TIP3     OH2      OT      -0.834000       15.9994           0
     24818 WT1      8140     TIP3     H1       HT       0.417000        1.0080           0
     24819 WT1      8140     TIP3     H2       HT       0.417000        1.0080           0
     24820 WT1      8141     TIP3     OH2      OT      -0.834000       15.9994           0
     24821 WT1      8141     TIP3     H1       HT       0.417000        1.0080           0
     24822 WT1      8141     TIP3     H2       HT       0.417000        1.0080           0
     24823 WT1      8142     TIP3     OH2      OT      -0.834000       15.9994           0
     24824 WT1      8142     TIP3     H1       HT       0.417000        1.0080           0
     24825 WT1      8142     TIP3     H2       HT       0.417000        1.0080           0
     24826 WT1      8143     TIP3     OH2      OT      -0.834000       15.9994           0
     24827 WT1      8143     TIP3     H1       HT       0.417000        1.0080           0
     24828 WT1      8143     TIP3     H2       HT       0.417000        1.0080           0
     24829 WT1      8144     TIP3     OH2      OT      -0.834000       15.9994           0
     24830 WT1      8144     TIP3     H1       HT       0.417000        1.0080           0
     24831 WT1      8144     TIP3     H2       HT       0.417000        1.0080           0
     24832 WT1      8146     TIP3     OH2      OT      -0.834000       15.9994           0
     24833 WT1      8146     TIP3     H1       HT       0.417000        1.0080           0
     24834 WT1      8146     TIP3     H2       HT       0.417000        1.0080           0
     24835 WT1      8147     TIP3     OH2      OT      -0.834000       15.9994           0
     24836 WT1      8147     TIP3     H1       HT       0.417000        1.0080           0
     24837 WT1      8147     TIP3     H2       HT       0.417000        1.0080           0
     24838 WT1      8148     TIP3     OH2      OT      -0.834000       15.9994           0
     24839 WT1      8148     TIP3     H1       HT       0.417000        1.0080           0
     24840 WT1      8148     TIP3     H2       HT       0.417000        1.0080           0
     24841 WT1      8149     TIP3     OH2      OT      -0.834000       15.9994           0
     24842 WT1      8149     TIP3     H1       HT       0.417000        1.0080           0
     24843 WT1      8149     TIP3     H2       HT       0.417000        1.0080           0
     24844 WT1      8150     TIP3     OH2      OT      -0.834000       15.9994           0
     24845 WT1      8150     TIP3     H1       HT       0.417000        1.0080           0
     24846 WT1      8150     TIP3     H2       HT       0.417000        1.0080           0
     24847 WT1      8151     TIP3     OH2      OT      -0.834000       15.9994           0
     24848 WT1      8151     TIP3     H1       HT       0.417000        1.0080           0
     24849 WT1      8151     TIP3     H2       HT       0.417000        1.0080           0
     24850 WT1      8152     TIP3     OH2      OT      -0.834000       15.9994           0
     24851 WT1      8152     TIP3     H1       HT       0.417000        1.0080           0
     24852 WT1      8152     TIP3     H2       HT       0.417000        1.0080           0
     24853 WT1      8153     TIP3     OH2      OT      -0.834000       15.9994           0
     24854 WT1      8153     TIP3     H1       HT       0.417000        1.0080           0
     24855 WT1      8153     TIP3     H2       HT       0.417000        1.0080           0
     24856 WT1      8154     TIP3     OH2      OT      -0.834000       15.9994           0
     24857 WT1      8154     TIP3     H1       HT       0.417000        1.0080           0
     24858 WT1      8154     TIP3     H2       HT       0.417000        1.0080           0
     24859 WT1      8155     TIP3     OH2      OT      -0.834000       15.9994           0
     24860 WT1      8155     TIP3     H1       HT       0.417000        1.0080           0
     24861 WT1      8155     TIP3     H2       HT       0.417000        1.0080           0
     24862 WT1      8156     TIP3     OH2      OT      -0.834000       15.9994           0
     24863 WT1      8156     TIP3     H1       HT       0.417000        1.0080           0
     24864 WT1      8156     TIP3     H2       HT       0.417000        1.0080           0
     24865 WT1      8157     TIP3     OH2      OT      -0.834000       15.9994           0
     24866 WT1      8157     TIP3     H1       HT       0.417000        1.0080           0
     24867 WT1      8157     TIP3     H2       HT       0.417000        1.0080           0
     24868 WT1      8158     TIP3     OH2      OT      -0.834000       15.9994           0
     24869 WT1      8158     TIP3     H1       HT       0.417000        1.0080           0
     24870 WT1      8158     TIP3     H2       HT       0.417000        1.0080           0
     24871 WT1      8159     TIP3     OH2      OT      -0.834000       15.9994           0
     24872 WT1      8159     TIP3     H1       HT       0.417000        1.0080           0
     24873 WT1      8159     TIP3     H2       HT       0.417000        1.0080           0
     24874 WT1      8160     TIP3     OH2      OT      -0.834000       15.9994           0
     24875 WT1      8160     TIP3     H1       HT       0.417000        1.0080           0
     24876 WT1      8160     TIP3     H2       HT       0.417000        1.0080           0
     24877 WT1      8162     TIP3     OH2      OT      -0.834000       15.9994           0
     24878 WT1      8162     TIP3     H1       HT       0.417000        1.0080           0
     24879 WT1      8162     TIP3     H2       HT       0.417000        1.0080           0
     24880 WT1      8163     TIP3     OH2      OT      -0.834000       15.9994           0
     24881 WT1      8163     TIP3     H1       HT       0.417000        1.0080           0
     24882 WT1      8163     TIP3     H2       HT       0.417000        1.0080           0
     24883 WT1      8164     TIP3     OH2      OT      -0.834000       15.9994           0
     24884 WT1      8164     TIP3     H1       HT       0.417000        1.0080           0
     24885 WT1      8164     TIP3     H2       HT       0.417000        1.0080           0
     24886 WT1      8166     TIP3     OH2      OT      -0.834000       15.9994           0
     24887 WT1      8166     TIP3     H1       HT       0.417000        1.0080           0
     24888 WT1      8166     TIP3     H2       HT       0.417000        1.0080           0
     24889 WT1      8167     TIP3     OH2      OT      -0.834000       15.9994           0
     24890 WT1      8167     TIP3     H1       HT       0.417000        1.0080           0
     24891 WT1      8167     TIP3     H2       HT       0.417000        1.0080           0
     24892 WT1      8168     TIP3     OH2      OT      -0.834000       15.9994           0
     24893 WT1      8168     TIP3     H1       HT       0.417000        1.0080           0
     24894 WT1      8168     TIP3     H2       HT       0.417000        1.0080           0
     24895 WT1      8169     TIP3     OH2      OT      -0.834000       15.9994           0
     24896 WT1      8169     TIP3     H1       HT       0.417000        1.0080           0
     24897 WT1      8169     TIP3     H2       HT       0.417000        1.0080           0
     24898 WT1      8170     TIP3     OH2      OT      -0.834000       15.9994           0
     24899 WT1      8170     TIP3     H1       HT       0.417000        1.0080           0
     24900 WT1      8170     TIP3     H2       HT       0.417000        1.0080           0
     24901 WT1      8171     TIP3     OH2      OT      -0.834000       15.9994           0
     24902 WT1      8171     TIP3     H1       HT       0.417000        1.0080           0
     24903 WT1      8171     TIP3     H2       HT       0.417000        1.0080           0
     24904 WT1      8172     TIP3     OH2      OT      -0.834000       15.9994           0
     24905 WT1      8172     TIP3     H1       HT       0.417000        1.0080           0
     24906 WT1      8172     TIP3     H2       HT       0.417000        1.0080           0
     24907 WT1      8173     TIP3     OH2      OT      -0.834000       15.9994           0
     24908 WT1      8173     TIP3     H1       HT       0.417000        1.0080           0
     24909 WT1      8173     TIP3     H2       HT       0.417000        1.0080           0
     24910 WT1      8174     TIP3     OH2      OT      -0.834000       15.9994           0
     24911 WT1      8174     TIP3     H1       HT       0.417000        1.0080           0
     24912 WT1      8174     TIP3     H2       HT       0.417000        1.0080           0
     24913 WT1      8175     TIP3     OH2      OT      -0.834000       15.9994           0
     24914 WT1      8175     TIP3     H1       HT       0.417000        1.0080           0
     24915 WT1      8175     TIP3     H2       HT       0.417000        1.0080           0
     24916 WT1      8176     TIP3     OH2      OT      -0.834000       15.9994           0
     24917 WT1      8176     TIP3     H1       HT       0.417000        1.0080           0
     24918 WT1      8176     TIP3     H2       HT       0.417000        1.0080           0
     24919 WT1      8177     TIP3     OH2      OT      -0.834000       15.9994           0
     24920 WT1      8177     TIP3     H1       HT       0.417000        1.0080           0
     24921 WT1      8177     TIP3     H2       HT       0.417000        1.0080           0
     24922 WT1      8178     TIP3     OH2      OT      -0.834000       15.9994           0
     24923 WT1      8178     TIP3     H1       HT       0.417000        1.0080           0
     24924 WT1      8178     TIP3     H2       HT       0.417000        1.0080           0
     24925 WT1      8179     TIP3     OH2      OT      -0.834000       15.9994           0
     24926 WT1      8179     TIP3     H1       HT       0.417000        1.0080           0
     24927 WT1      8179     TIP3     H2       HT       0.417000        1.0080           0
     24928 WT1      8180     TIP3     OH2      OT      -0.834000       15.9994           0
     24929 WT1      8180     TIP3     H1       HT       0.417000        1.0080           0
     24930 WT1      8180     TIP3     H2       HT       0.417000        1.0080           0
     24931 WT1      8181     TIP3     OH2      OT      -0.834000       15.9994           0
     24932 WT1      8181     TIP3     H1       HT       0.417000        1.0080           0
     24933 WT1      8181     TIP3     H2       HT       0.417000        1.0080           0
     24934 WT1      8182     TIP3     OH2      OT      -0.834000       15.9994           0
     24935 WT1      8182     TIP3     H1       HT       0.417000        1.0080           0
     24936 WT1      8182     TIP3     H2       HT       0.417000        1.0080           0
     24937 WT1      8183     TIP3     OH2      OT      -0.834000       15.9994           0
     24938 WT1      8183     TIP3     H1       HT       0.417000        1.0080           0
     24939 WT1      8183     TIP3     H2       HT       0.417000        1.0080           0
     24940 WT1      8184     TIP3     OH2      OT      -0.834000       15.9994           0
     24941 WT1      8184     TIP3     H1       HT       0.417000        1.0080           0
     24942 WT1      8184     TIP3     H2       HT       0.417000        1.0080           0
     24943 WT1      8185     TIP3     OH2      OT      -0.834000       15.9994           0
     24944 WT1      8185     TIP3     H1       HT       0.417000        1.0080           0
     24945 WT1      8185     TIP3     H2       HT       0.417000        1.0080           0
     24946 WT1      8186     TIP3     OH2      OT      -0.834000       15.9994           0
     24947 WT1      8186     TIP3     H1       HT       0.417000        1.0080           0
     24948 WT1      8186     TIP3     H2       HT       0.417000        1.0080           0
     24949 WT1      8187     TIP3     OH2      OT      -0.834000       15.9994           0
     24950 WT1      8187     TIP3     H1       HT       0.417000        1.0080           0
     24951 WT1      8187     TIP3     H2       HT       0.417000        1.0080           0
     24952 WT1      8188     TIP3     OH2      OT      -0.834000       15.9994           0
     24953 WT1      8188     TIP3     H1       HT       0.417000        1.0080           0
     24954 WT1      8188     TIP3     H2       HT       0.417000        1.0080           0
     24955 WT1      8189     TIP3     OH2      OT      -0.834000       15.9994           0
     24956 WT1      8189     TIP3     H1       HT       0.417000        1.0080           0
     24957 WT1      8189     TIP3     H2       HT       0.417000        1.0080           0
     24958 WT1      8190     TIP3     OH2      OT      -0.834000       15.9994           0
     24959 WT1      8190     TIP3     H1       HT       0.417000        1.0080           0
     24960 WT1      8190     TIP3     H2       HT       0.417000        1.0080           0
     24961 WT1      8192     TIP3     OH2      OT      -0.834000       15.9994           0
     24962 WT1      8192     TIP3     H1       HT       0.417000        1.0080           0
     24963 WT1      8192     TIP3     H2       HT       0.417000        1.0080           0
     24964 WT1      8193     TIP3     OH2      OT      -0.834000       15.9994           0
     24965 WT1      8193     TIP3     H1       HT       0.417000        1.0080           0
     24966 WT1      8193     TIP3     H2       HT       0.417000        1.0080           0
     24967 WT1      8194     TIP3     OH2      OT      -0.834000       15.9994           0
     24968 WT1      8194     TIP3     H1       HT       0.417000        1.0080           0
     24969 WT1      8194     TIP3     H2       HT       0.417000        1.0080           0
     24970 WT1      8195     TIP3     OH2      OT      -0.834000       15.9994           0
     24971 WT1      8195     TIP3     H1       HT       0.417000        1.0080           0
     24972 WT1      8195     TIP3     H2       HT       0.417000        1.0080           0
     24973 WT1      8196     TIP3     OH2      OT      -0.834000       15.9994           0
     24974 WT1      8196     TIP3     H1       HT       0.417000        1.0080           0
     24975 WT1      8196     TIP3     H2       HT       0.417000        1.0080           0
     24976 WT1      8197     TIP3     OH2      OT      -0.834000       15.9994           0
     24977 WT1      8197     TIP3     H1       HT       0.417000        1.0080           0
     24978 WT1      8197     TIP3     H2       HT       0.417000        1.0080           0
     24979 WT1      8198     TIP3     OH2      OT      -0.834000       15.9994           0
     24980 WT1      8198     TIP3     H1       HT       0.417000        1.0080           0
     24981 WT1      8198     TIP3     H2       HT       0.417000        1.0080           0
     24982 WT1      8199     TIP3     OH2      OT      -0.834000       15.9994           0
     24983 WT1      8199     TIP3     H1       HT       0.417000        1.0080           0
     24984 WT1      8199     TIP3     H2       HT       0.417000        1.0080           0
     24985 WT1      8200     TIP3     OH2      OT      -0.834000       15.9994           0
     24986 WT1      8200     TIP3     H1       HT       0.417000        1.0080           0
     24987 WT1      8200     TIP3     H2       HT       0.417000        1.0080           0
     24988 WT1      8201     TIP3     OH2      OT      -0.834000       15.9994           0
     24989 WT1      8201     TIP3     H1       HT       0.417000        1.0080           0
     24990 WT1      8201     TIP3     H2       HT       0.417000        1.0080           0
     24991 WT1      8202     TIP3     OH2      OT      -0.834000       15.9994           0
     24992 WT1      8202     TIP3     H1       HT       0.417000        1.0080           0
     24993 WT1      8202     TIP3     H2       HT       0.417000        1.0080           0
     24994 WT1      8203     TIP3     OH2      OT      -0.834000       15.9994           0
     24995 WT1      8203     TIP3     H1       HT       0.417000        1.0080           0
     24996 WT1      8203     TIP3     H2       HT       0.417000        1.0080           0
     24997 WT1      8204     TIP3     OH2      OT      -0.834000       15.9994           0
     24998 WT1      8204     TIP3     H1       HT       0.417000        1.0080           0
     24999 WT1      8204     TIP3     H2       HT       0.417000        1.0080           0
     25000 WT1      8205     TIP3     OH2      OT      -0.834000       15.9994           0
     25001 WT1      8205     TIP3     H1       HT       0.417000        1.0080           0
     25002 WT1      8205     TIP3     H2       HT       0.417000        1.0080           0
     25003 WT1      8206     TIP3     OH2      OT      -0.834000       15.9994           0
     25004 WT1      8206     TIP3     H1       HT       0.417000        1.0080           0
     25005 WT1      8206     TIP3     H2       HT       0.417000        1.0080           0
     25006 WT1      8207     TIP3     OH2      OT      -0.834000       15.9994           0
     25007 WT1      8207     TIP3     H1       HT       0.417000        1.0080           0
     25008 WT1      8207     TIP3     H2       HT       0.417000        1.0080           0
     25009 WT1      8208     TIP3     OH2      OT      -0.834000       15.9994           0
     25010 WT1      8208     TIP3     H1       HT       0.417000        1.0080           0
     25011 WT1      8208     TIP3     H2       HT       0.417000        1.0080           0
     25012 WT1      8209     TIP3     OH2      OT      -0.834000       15.9994           0
     25013 WT1      8209     TIP3     H1       HT       0.417000        1.0080           0
     25014 WT1      8209     TIP3     H2       HT       0.417000        1.0080           0
     25015 WT1      8210     TIP3     OH2      OT      -0.834000       15.9994           0
     25016 WT1      8210     TIP3     H1       HT       0.417000        1.0080           0
     25017 WT1      8210     TIP3     H2       HT       0.417000        1.0080           0
     25018 WT1      8211     TIP3     OH2      OT      -0.834000       15.9994           0
     25019 WT1      8211     TIP3     H1       HT       0.417000        1.0080           0
     25020 WT1      8211     TIP3     H2       HT       0.417000        1.0080           0
     25021 WT1      8212     TIP3     OH2      OT      -0.834000       15.9994           0
     25022 WT1      8212     TIP3     H1       HT       0.417000        1.0080           0
     25023 WT1      8212     TIP3     H2       HT       0.417000        1.0080           0
     25024 WT1      8213     TIP3     OH2      OT      -0.834000       15.9994           0
     25025 WT1      8213     TIP3     H1       HT       0.417000        1.0080           0
     25026 WT1      8213     TIP3     H2       HT       0.417000        1.0080           0
     25027 WT1      8214     TIP3     OH2      OT      -0.834000       15.9994           0
     25028 WT1      8214     TIP3     H1       HT       0.417000        1.0080           0
     25029 WT1      8214     TIP3     H2       HT       0.417000        1.0080           0
     25030 WT1      8215     TIP3     OH2      OT      -0.834000       15.9994           0
     25031 WT1      8215     TIP3     H1       HT       0.417000        1.0080           0
     25032 WT1      8215     TIP3     H2       HT       0.417000        1.0080           0
     25033 WT1      8216     TIP3     OH2      OT      -0.834000       15.9994           0
     25034 WT1      8216     TIP3     H1       HT       0.417000        1.0080           0
     25035 WT1      8216     TIP3     H2       HT       0.417000        1.0080           0
     25036 WT1      8217     TIP3     OH2      OT      -0.834000       15.9994           0
     25037 WT1      8217     TIP3     H1       HT       0.417000        1.0080           0
     25038 WT1      8217     TIP3     H2       HT       0.417000        1.0080           0
     25039 WT1      8218     TIP3     OH2      OT      -0.834000       15.9994           0
     25040 WT1      8218     TIP3     H1       HT       0.417000        1.0080           0
     25041 WT1      8218     TIP3     H2       HT       0.417000        1.0080           0
     25042 WT1      8219     TIP3     OH2      OT      -0.834000       15.9994           0
     25043 WT1      8219     TIP3     H1       HT       0.417000        1.0080           0
     25044 WT1      8219     TIP3     H2       HT       0.417000        1.0080           0
     25045 WT1      8220     TIP3     OH2      OT      -0.834000       15.9994           0
     25046 WT1      8220     TIP3     H1       HT       0.417000        1.0080           0
     25047 WT1      8220     TIP3     H2       HT       0.417000        1.0080           0
     25048 WT1      8221     TIP3     OH2      OT      -0.834000       15.9994           0
     25049 WT1      8221     TIP3     H1       HT       0.417000        1.0080           0
     25050 WT1      8221     TIP3     H2       HT       0.417000        1.0080           0
     25051 WT1      8222     TIP3     OH2      OT      -0.834000       15.9994           0
     25052 WT1      8222     TIP3     H1       HT       0.417000        1.0080           0
     25053 WT1      8222     TIP3     H2       HT       0.417000        1.0080           0
     25054 WT1      8223     TIP3     OH2      OT      -0.834000       15.9994           0
     25055 WT1      8223     TIP3     H1       HT       0.417000        1.0080           0
     25056 WT1      8223     TIP3     H2       HT       0.417000        1.0080           0
     25057 WT1      8224     TIP3     OH2      OT      -0.834000       15.9994           0
     25058 WT1      8224     TIP3     H1       HT       0.417000        1.0080           0
     25059 WT1      8224     TIP3     H2       HT       0.417000        1.0080           0
     25060 WT1      8225     TIP3     OH2      OT      -0.834000       15.9994           0
     25061 WT1      8225     TIP3     H1       HT       0.417000        1.0080           0
     25062 WT1      8225     TIP3     H2       HT       0.417000        1.0080           0
     25063 WT1      8226     TIP3     OH2      OT      -0.834000       15.9994           0
     25064 WT1      8226     TIP3     H1       HT       0.417000        1.0080           0
     25065 WT1      8226     TIP3     H2       HT       0.417000        1.0080           0
     25066 WT1      8227     TIP3     OH2      OT      -0.834000       15.9994           0
     25067 WT1      8227     TIP3     H1       HT       0.417000        1.0080           0
     25068 WT1      8227     TIP3     H2       HT       0.417000        1.0080           0
     25069 WT1      8228     TIP3     OH2      OT      -0.834000       15.9994           0
     25070 WT1      8228     TIP3     H1       HT       0.417000        1.0080           0
     25071 WT1      8228     TIP3     H2       HT       0.417000        1.0080           0
     25072 WT1      8229     TIP3     OH2      OT      -0.834000       15.9994           0
     25073 WT1      8229     TIP3     H1       HT       0.417000        1.0080           0
     25074 WT1      8229     TIP3     H2       HT       0.417000        1.0080           0
     25075 WT1      8230     TIP3     OH2      OT      -0.834000       15.9994           0
     25076 WT1      8230     TIP3     H1       HT       0.417000        1.0080           0
     25077 WT1      8230     TIP3     H2       HT       0.417000        1.0080           0
     25078 WT1      8231     TIP3     OH2      OT      -0.834000       15.9994           0
     25079 WT1      8231     TIP3     H1       HT       0.417000        1.0080           0
     25080 WT1      8231     TIP3     H2       HT       0.417000        1.0080           0
     25081 WT1      8232     TIP3     OH2      OT      -0.834000       15.9994           0
     25082 WT1      8232     TIP3     H1       HT       0.417000        1.0080           0
     25083 WT1      8232     TIP3     H2       HT       0.417000        1.0080           0
     25084 WT1      8233     TIP3     OH2      OT      -0.834000       15.9994           0
     25085 WT1      8233     TIP3     H1       HT       0.417000        1.0080           0
     25086 WT1      8233     TIP3     H2       HT       0.417000        1.0080           0
     25087 WT1      8234     TIP3     OH2      OT      -0.834000       15.9994           0
     25088 WT1      8234     TIP3     H1       HT       0.417000        1.0080           0
     25089 WT1      8234     TIP3     H2       HT       0.417000        1.0080           0
     25090 WT1      8235     TIP3     OH2      OT      -0.834000       15.9994           0
     25091 WT1      8235     TIP3     H1       HT       0.417000        1.0080           0
     25092 WT1      8235     TIP3     H2       HT       0.417000        1.0080           0
     25093 WT1      8236     TIP3     OH2      OT      -0.834000       15.9994           0
     25094 WT1      8236     TIP3     H1       HT       0.417000        1.0080           0
     25095 WT1      8236     TIP3     H2       HT       0.417000        1.0080           0
     25096 WT1      8237     TIP3     OH2      OT      -0.834000       15.9994           0
     25097 WT1      8237     TIP3     H1       HT       0.417000        1.0080           0
     25098 WT1      8237     TIP3     H2       HT       0.417000        1.0080           0
     25099 WT1      8238     TIP3     OH2      OT      -0.834000       15.9994           0
     25100 WT1      8238     TIP3     H1       HT       0.417000        1.0080           0
     25101 WT1      8238     TIP3     H2       HT       0.417000        1.0080           0
     25102 WT1      8239     TIP3     OH2      OT      -0.834000       15.9994           0
     25103 WT1      8239     TIP3     H1       HT       0.417000        1.0080           0
     25104 WT1      8239     TIP3     H2       HT       0.417000        1.0080           0
     25105 WT1      8240     TIP3     OH2      OT      -0.834000       15.9994           0
     25106 WT1      8240     TIP3     H1       HT       0.417000        1.0080           0
     25107 WT1      8240     TIP3     H2       HT       0.417000        1.0080           0
     25108 WT1      8241     TIP3     OH2      OT      -0.834000       15.9994           0
     25109 WT1      8241     TIP3     H1       HT       0.417000        1.0080           0
     25110 WT1      8241     TIP3     H2       HT       0.417000        1.0080           0
     25111 WT1      8242     TIP3     OH2      OT      -0.834000       15.9994           0
     25112 WT1      8242     TIP3     H1       HT       0.417000        1.0080           0
     25113 WT1      8242     TIP3     H2       HT       0.417000        1.0080           0
     25114 WT1      8243     TIP3     OH2      OT      -0.834000       15.9994           0
     25115 WT1      8243     TIP3     H1       HT       0.417000        1.0080           0
     25116 WT1      8243     TIP3     H2       HT       0.417000        1.0080           0
     25117 WT1      8244     TIP3     OH2      OT      -0.834000       15.9994           0
     25118 WT1      8244     TIP3     H1       HT       0.417000        1.0080           0
     25119 WT1      8244     TIP3     H2       HT       0.417000        1.0080           0
     25120 WT1      8245     TIP3     OH2      OT      -0.834000       15.9994           0
     25121 WT1      8245     TIP3     H1       HT       0.417000        1.0080           0
     25122 WT1      8245     TIP3     H2       HT       0.417000        1.0080           0
     25123 WT1      8246     TIP3     OH2      OT      -0.834000       15.9994           0
     25124 WT1      8246     TIP3     H1       HT       0.417000        1.0080           0
     25125 WT1      8246     TIP3     H2       HT       0.417000        1.0080           0
     25126 WT1      8247     TIP3     OH2      OT      -0.834000       15.9994           0
     25127 WT1      8247     TIP3     H1       HT       0.417000        1.0080           0
     25128 WT1      8247     TIP3     H2       HT       0.417000        1.0080           0
     25129 WT1      8248     TIP3     OH2      OT      -0.834000       15.9994           0
     25130 WT1      8248     TIP3     H1       HT       0.417000        1.0080           0
     25131 WT1      8248     TIP3     H2       HT       0.417000        1.0080           0
     25132 WT1      8249     TIP3     OH2      OT      -0.834000       15.9994           0
     25133 WT1      8249     TIP3     H1       HT       0.417000        1.0080           0
     25134 WT1      8249     TIP3     H2       HT       0.417000        1.0080           0
     25135 WT1      8250     TIP3     OH2      OT      -0.834000       15.9994           0
     25136 WT1      8250     TIP3     H1       HT       0.417000        1.0080           0
     25137 WT1      8250     TIP3     H2       HT       0.417000        1.0080           0
     25138 WT1      8251     TIP3     OH2      OT      -0.834000       15.9994           0
     25139 WT1      8251     TIP3     H1       HT       0.417000        1.0080           0
     25140 WT1      8251     TIP3     H2       HT       0.417000        1.0080           0
     25141 WT1      8252     TIP3     OH2      OT      -0.834000       15.9994           0
     25142 WT1      8252     TIP3     H1       HT       0.417000        1.0080           0
     25143 WT1      8252     TIP3     H2       HT       0.417000        1.0080           0
     25144 WT1      8253     TIP3     OH2      OT      -0.834000       15.9994           0
     25145 WT1      8253     TIP3     H1       HT       0.417000        1.0080           0
     25146 WT1      8253     TIP3     H2       HT       0.417000        1.0080           0
     25147 WT1      8254     TIP3     OH2      OT      -0.834000       15.9994           0
     25148 WT1      8254     TIP3     H1       HT       0.417000        1.0080           0
     25149 WT1      8254     TIP3     H2       HT       0.417000        1.0080           0
     25150 WT1      8255     TIP3     OH2      OT      -0.834000       15.9994           0
     25151 WT1      8255     TIP3     H1       HT       0.417000        1.0080           0
     25152 WT1      8255     TIP3     H2       HT       0.417000        1.0080           0
     25153 WT1      8256     TIP3     OH2      OT      -0.834000       15.9994           0
     25154 WT1      8256     TIP3     H1       HT       0.417000        1.0080           0
     25155 WT1      8256     TIP3     H2       HT       0.417000        1.0080           0
     25156 WT1      8257     TIP3     OH2      OT      -0.834000       15.9994           0
     25157 WT1      8257     TIP3     H1       HT       0.417000        1.0080           0
     25158 WT1      8257     TIP3     H2       HT       0.417000        1.0080           0
     25159 WT1      8258     TIP3     OH2      OT      -0.834000       15.9994           0
     25160 WT1      8258     TIP3     H1       HT       0.417000        1.0080           0
     25161 WT1      8258     TIP3     H2       HT       0.417000        1.0080           0
     25162 WT1      8259     TIP3     OH2      OT      -0.834000       15.9994           0
     25163 WT1      8259     TIP3     H1       HT       0.417000        1.0080           0
     25164 WT1      8259     TIP3     H2       HT       0.417000        1.0080           0
     25165 WT1      8260     TIP3     OH2      OT      -0.834000       15.9994           0
     25166 WT1      8260     TIP3     H1       HT       0.417000        1.0080           0
     25167 WT1      8260     TIP3     H2       HT       0.417000        1.0080           0
     25168 WT1      8261     TIP3     OH2      OT      -0.834000       15.9994           0
     25169 WT1      8261     TIP3     H1       HT       0.417000        1.0080           0
     25170 WT1      8261     TIP3     H2       HT       0.417000        1.0080           0
     25171 WT1      8262     TIP3     OH2      OT      -0.834000       15.9994           0
     25172 WT1      8262     TIP3     H1       HT       0.417000        1.0080           0
     25173 WT1      8262     TIP3     H2       HT       0.417000        1.0080           0
     25174 WT1      8263     TIP3     OH2      OT      -0.834000       15.9994           0
     25175 WT1      8263     TIP3     H1       HT       0.417000        1.0080           0
     25176 WT1      8263     TIP3     H2       HT       0.417000        1.0080           0
     25177 WT1      8264     TIP3     OH2      OT      -0.834000       15.9994           0
     25178 WT1      8264     TIP3     H1       HT       0.417000        1.0080           0
     25179 WT1      8264     TIP3     H2       HT       0.417000        1.0080           0
     25180 WT1      8265     TIP3     OH2      OT      -0.834000       15.9994           0
     25181 WT1      8265     TIP3     H1       HT       0.417000        1.0080           0
     25182 WT1      8265     TIP3     H2       HT       0.417000        1.0080           0
     25183 WT1      8266     TIP3     OH2      OT      -0.834000       15.9994           0
     25184 WT1      8266     TIP3     H1       HT       0.417000        1.0080           0
     25185 WT1      8266     TIP3     H2       HT       0.417000        1.0080           0
     25186 WT1      8267     TIP3     OH2      OT      -0.834000       15.9994           0
     25187 WT1      8267     TIP3     H1       HT       0.417000        1.0080           0
     25188 WT1      8267     TIP3     H2       HT       0.417000        1.0080           0
     25189 WT1      8268     TIP3     OH2      OT      -0.834000       15.9994           0
     25190 WT1      8268     TIP3     H1       HT       0.417000        1.0080           0
     25191 WT1      8268     TIP3     H2       HT       0.417000        1.0080           0
     25192 WT1      8269     TIP3     OH2      OT      -0.834000       15.9994           0
     25193 WT1      8269     TIP3     H1       HT       0.417000        1.0080           0
     25194 WT1      8269     TIP3     H2       HT       0.417000        1.0080           0
     25195 WT1      8271     TIP3     OH2      OT      -0.834000       15.9994           0
     25196 WT1      8271     TIP3     H1       HT       0.417000        1.0080           0
     25197 WT1      8271     TIP3     H2       HT       0.417000        1.0080           0
     25198 WT1      8272     TIP3     OH2      OT      -0.834000       15.9994           0
     25199 WT1      8272     TIP3     H1       HT       0.417000        1.0080           0
     25200 WT1      8272     TIP3     H2       HT       0.417000        1.0080           0
     25201 WT1      8273     TIP3     OH2      OT      -0.834000       15.9994           0
     25202 WT1      8273     TIP3     H1       HT       0.417000        1.0080           0
     25203 WT1      8273     TIP3     H2       HT       0.417000        1.0080           0
     25204 WT1      8274     TIP3     OH2      OT      -0.834000       15.9994           0
     25205 WT1      8274     TIP3     H1       HT       0.417000        1.0080           0
     25206 WT1      8274     TIP3     H2       HT       0.417000        1.0080           0
     25207 WT1      8275     TIP3     OH2      OT      -0.834000       15.9994           0
     25208 WT1      8275     TIP3     H1       HT       0.417000        1.0080           0
     25209 WT1      8275     TIP3     H2       HT       0.417000        1.0080           0
     25210 WT1      8276     TIP3     OH2      OT      -0.834000       15.9994           0
     25211 WT1      8276     TIP3     H1       HT       0.417000        1.0080           0
     25212 WT1      8276     TIP3     H2       HT       0.417000        1.0080           0
     25213 WT1      8277     TIP3     OH2      OT      -0.834000       15.9994           0
     25214 WT1      8277     TIP3     H1       HT       0.417000        1.0080           0
     25215 WT1      8277     TIP3     H2       HT       0.417000        1.0080           0
     25216 WT1      8278     TIP3     OH2      OT      -0.834000       15.9994           0
     25217 WT1      8278     TIP3     H1       HT       0.417000        1.0080           0
     25218 WT1      8278     TIP3     H2       HT       0.417000        1.0080           0
     25219 WT1      8279     TIP3     OH2      OT      -0.834000       15.9994           0
     25220 WT1      8279     TIP3     H1       HT       0.417000        1.0080           0
     25221 WT1      8279     TIP3     H2       HT       0.417000        1.0080           0
     25222 WT1      8280     TIP3     OH2      OT      -0.834000       15.9994           0
     25223 WT1      8280     TIP3     H1       HT       0.417000        1.0080           0
     25224 WT1      8280     TIP3     H2       HT       0.417000        1.0080           0
     25225 WT1      8281     TIP3     OH2      OT      -0.834000       15.9994           0
     25226 WT1      8281     TIP3     H1       HT       0.417000        1.0080           0
     25227 WT1      8281     TIP3     H2       HT       0.417000        1.0080           0
     25228 WT1      8282     TIP3     OH2      OT      -0.834000       15.9994           0
     25229 WT1      8282     TIP3     H1       HT       0.417000        1.0080           0
     25230 WT1      8282     TIP3     H2       HT       0.417000        1.0080           0
     25231 WT1      8283     TIP3     OH2      OT      -0.834000       15.9994           0
     25232 WT1      8283     TIP3     H1       HT       0.417000        1.0080           0
     25233 WT1      8283     TIP3     H2       HT       0.417000        1.0080           0
     25234 WT1      8284     TIP3     OH2      OT      -0.834000       15.9994           0
     25235 WT1      8284     TIP3     H1       HT       0.417000        1.0080           0
     25236 WT1      8284     TIP3     H2       HT       0.417000        1.0080           0
     25237 WT1      8285     TIP3     OH2      OT      -0.834000       15.9994           0
     25238 WT1      8285     TIP3     H1       HT       0.417000        1.0080           0
     25239 WT1      8285     TIP3     H2       HT       0.417000        1.0080           0
     25240 WT1      8286     TIP3     OH2      OT      -0.834000       15.9994           0
     25241 WT1      8286     TIP3     H1       HT       0.417000        1.0080           0
     25242 WT1      8286     TIP3     H2       HT       0.417000        1.0080           0
     25243 WT1      8287     TIP3     OH2      OT      -0.834000       15.9994           0
     25244 WT1      8287     TIP3     H1       HT       0.417000        1.0080           0
     25245 WT1      8287     TIP3     H2       HT       0.417000        1.0080           0
     25246 WT1      8288     TIP3     OH2      OT      -0.834000       15.9994           0
     25247 WT1      8288     TIP3     H1       HT       0.417000        1.0080           0
     25248 WT1      8288     TIP3     H2       HT       0.417000        1.0080           0
     25249 WT1      8289     TIP3     OH2      OT      -0.834000       15.9994           0
     25250 WT1      8289     TIP3     H1       HT       0.417000        1.0080           0
     25251 WT1      8289     TIP3     H2       HT       0.417000        1.0080           0
     25252 WT1      8290     TIP3     OH2      OT      -0.834000       15.9994           0
     25253 WT1      8290     TIP3     H1       HT       0.417000        1.0080           0
     25254 WT1      8290     TIP3     H2       HT       0.417000        1.0080           0
     25255 WT1      8291     TIP3     OH2      OT      -0.834000       15.9994           0
     25256 WT1      8291     TIP3     H1       HT       0.417000        1.0080           0
     25257 WT1      8291     TIP3     H2       HT       0.417000        1.0080           0
     25258 WT1      8292     TIP3     OH2      OT      -0.834000       15.9994           0
     25259 WT1      8292     TIP3     H1       HT       0.417000        1.0080           0
     25260 WT1      8292     TIP3     H2       HT       0.417000        1.0080           0
     25261 WT1      8293     TIP3     OH2      OT      -0.834000       15.9994           0
     25262 WT1      8293     TIP3     H1       HT       0.417000        1.0080           0
     25263 WT1      8293     TIP3     H2       HT       0.417000        1.0080           0
     25264 WT1      8294     TIP3     OH2      OT      -0.834000       15.9994           0
     25265 WT1      8294     TIP3     H1       HT       0.417000        1.0080           0
     25266 WT1      8294     TIP3     H2       HT       0.417000        1.0080           0
     25267 WT1      8295     TIP3     OH2      OT      -0.834000       15.9994           0
     25268 WT1      8295     TIP3     H1       HT       0.417000        1.0080           0
     25269 WT1      8295     TIP3     H2       HT       0.417000        1.0080           0
     25270 WT1      8296     TIP3     OH2      OT      -0.834000       15.9994           0
     25271 WT1      8296     TIP3     H1       HT       0.417000        1.0080           0
     25272 WT1      8296     TIP3     H2       HT       0.417000        1.0080           0
     25273 WT1      8297     TIP3     OH2      OT      -0.834000       15.9994           0
     25274 WT1      8297     TIP3     H1       HT       0.417000        1.0080           0
     25275 WT1      8297     TIP3     H2       HT       0.417000        1.0080           0
     25276 WT1      8298     TIP3     OH2      OT      -0.834000       15.9994           0
     25277 WT1      8298     TIP3     H1       HT       0.417000        1.0080           0
     25278 WT1      8298     TIP3     H2       HT       0.417000        1.0080           0
     25279 WT1      8299     TIP3     OH2      OT      -0.834000       15.9994           0
     25280 WT1      8299     TIP3     H1       HT       0.417000        1.0080           0
     25281 WT1      8299     TIP3     H2       HT       0.417000        1.0080           0
     25282 WT1      8300     TIP3     OH2      OT      -0.834000       15.9994           0
     25283 WT1      8300     TIP3     H1       HT       0.417000        1.0080           0
     25284 WT1      8300     TIP3     H2       HT       0.417000        1.0080           0
     25285 WT1      8301     TIP3     OH2      OT      -0.834000       15.9994           0
     25286 WT1      8301     TIP3     H1       HT       0.417000        1.0080           0
     25287 WT1      8301     TIP3     H2       HT       0.417000        1.0080           0
     25288 WT1      8302     TIP3     OH2      OT      -0.834000       15.9994           0
     25289 WT1      8302     TIP3     H1       HT       0.417000        1.0080           0
     25290 WT1      8302     TIP3     H2       HT       0.417000        1.0080           0
     25291 WT1      8303     TIP3     OH2      OT      -0.834000       15.9994           0
     25292 WT1      8303     TIP3     H1       HT       0.417000        1.0080           0
     25293 WT1      8303     TIP3     H2       HT       0.417000        1.0080           0
     25294 WT1      8304     TIP3     OH2      OT      -0.834000       15.9994           0
     25295 WT1      8304     TIP3     H1       HT       0.417000        1.0080           0
     25296 WT1      8304     TIP3     H2       HT       0.417000        1.0080           0
     25297 WT1      8305     TIP3     OH2      OT      -0.834000       15.9994           0
     25298 WT1      8305     TIP3     H1       HT       0.417000        1.0080           0
     25299 WT1      8305     TIP3     H2       HT       0.417000        1.0080           0
     25300 WT1      8306     TIP3     OH2      OT      -0.834000       15.9994           0
     25301 WT1      8306     TIP3     H1       HT       0.417000        1.0080           0
     25302 WT1      8306     TIP3     H2       HT       0.417000        1.0080           0
     25303 WT1      8307     TIP3     OH2      OT      -0.834000       15.9994           0
     25304 WT1      8307     TIP3     H1       HT       0.417000        1.0080           0
     25305 WT1      8307     TIP3     H2       HT       0.417000        1.0080           0
     25306 WT1      8308     TIP3     OH2      OT      -0.834000       15.9994           0
     25307 WT1      8308     TIP3     H1       HT       0.417000        1.0080           0
     25308 WT1      8308     TIP3     H2       HT       0.417000        1.0080           0
     25309 WT1      8309     TIP3     OH2      OT      -0.834000       15.9994           0
     25310 WT1      8309     TIP3     H1       HT       0.417000        1.0080           0
     25311 WT1      8309     TIP3     H2       HT       0.417000        1.0080           0
     25312 WT1      8310     TIP3     OH2      OT      -0.834000       15.9994           0
     25313 WT1      8310     TIP3     H1       HT       0.417000        1.0080           0
     25314 WT1      8310     TIP3     H2       HT       0.417000        1.0080           0
     25315 WT1      8311     TIP3     OH2      OT      -0.834000       15.9994           0
     25316 WT1      8311     TIP3     H1       HT       0.417000        1.0080           0
     25317 WT1      8311     TIP3     H2       HT       0.417000        1.0080           0
     25318 WT1      8312     TIP3     OH2      OT      -0.834000       15.9994           0
     25319 WT1      8312     TIP3     H1       HT       0.417000        1.0080           0
     25320 WT1      8312     TIP3     H2       HT       0.417000        1.0080           0
     25321 WT1      8313     TIP3     OH2      OT      -0.834000       15.9994           0
     25322 WT1      8313     TIP3     H1       HT       0.417000        1.0080           0
     25323 WT1      8313     TIP3     H2       HT       0.417000        1.0080           0
     25324 WT1      8314     TIP3     OH2      OT      -0.834000       15.9994           0
     25325 WT1      8314     TIP3     H1       HT       0.417000        1.0080           0
     25326 WT1      8314     TIP3     H2       HT       0.417000        1.0080           0
     25327 WT1      8315     TIP3     OH2      OT      -0.834000       15.9994           0
     25328 WT1      8315     TIP3     H1       HT       0.417000        1.0080           0
     25329 WT1      8315     TIP3     H2       HT       0.417000        1.0080           0
     25330 WT1      8316     TIP3     OH2      OT      -0.834000       15.9994           0
     25331 WT1      8316     TIP3     H1       HT       0.417000        1.0080           0
     25332 WT1      8316     TIP3     H2       HT       0.417000        1.0080           0
     25333 WT1      8317     TIP3     OH2      OT      -0.834000       15.9994           0
     25334 WT1      8317     TIP3     H1       HT       0.417000        1.0080           0
     25335 WT1      8317     TIP3     H2       HT       0.417000        1.0080           0
     25336 WT1      8318     TIP3     OH2      OT      -0.834000       15.9994           0
     25337 WT1      8318     TIP3     H1       HT       0.417000        1.0080           0
     25338 WT1      8318     TIP3     H2       HT       0.417000        1.0080           0
     25339 WT1      8319     TIP3     OH2      OT      -0.834000       15.9994           0
     25340 WT1      8319     TIP3     H1       HT       0.417000        1.0080           0
     25341 WT1      8319     TIP3     H2       HT       0.417000        1.0080           0
     25342 WT1      8320     TIP3     OH2      OT      -0.834000       15.9994           0
     25343 WT1      8320     TIP3     H1       HT       0.417000        1.0080           0
     25344 WT1      8320     TIP3     H2       HT       0.417000        1.0080           0
     25345 WT1      8321     TIP3     OH2      OT      -0.834000       15.9994           0
     25346 WT1      8321     TIP3     H1       HT       0.417000        1.0080           0
     25347 WT1      8321     TIP3     H2       HT       0.417000        1.0080           0
     25348 WT1      8322     TIP3     OH2      OT      -0.834000       15.9994           0
     25349 WT1      8322     TIP3     H1       HT       0.417000        1.0080           0
     25350 WT1      8322     TIP3     H2       HT       0.417000        1.0080           0
     25351 WT1      8323     TIP3     OH2      OT      -0.834000       15.9994           0
     25352 WT1      8323     TIP3     H1       HT       0.417000        1.0080           0
     25353 WT1      8323     TIP3     H2       HT       0.417000        1.0080           0
     25354 WT1      8324     TIP3     OH2      OT      -0.834000       15.9994           0
     25355 WT1      8324     TIP3     H1       HT       0.417000        1.0080           0
     25356 WT1      8324     TIP3     H2       HT       0.417000        1.0080           0
     25357 WT1      8325     TIP3     OH2      OT      -0.834000       15.9994           0
     25358 WT1      8325     TIP3     H1       HT       0.417000        1.0080           0
     25359 WT1      8325     TIP3     H2       HT       0.417000        1.0080           0
     25360 WT1      8326     TIP3     OH2      OT      -0.834000       15.9994           0
     25361 WT1      8326     TIP3     H1       HT       0.417000        1.0080           0
     25362 WT1      8326     TIP3     H2       HT       0.417000        1.0080           0
     25363 WT1      8327     TIP3     OH2      OT      -0.834000       15.9994           0
     25364 WT1      8327     TIP3     H1       HT       0.417000        1.0080           0
     25365 WT1      8327     TIP3     H2       HT       0.417000        1.0080           0
     25366 WT1      8328     TIP3     OH2      OT      -0.834000       15.9994           0
     25367 WT1      8328     TIP3     H1       HT       0.417000        1.0080           0
     25368 WT1      8328     TIP3     H2       HT       0.417000        1.0080           0
     25369 WT1      8329     TIP3     OH2      OT      -0.834000       15.9994           0
     25370 WT1      8329     TIP3     H1       HT       0.417000        1.0080           0
     25371 WT1      8329     TIP3     H2       HT       0.417000        1.0080           0
     25372 WT1      8330     TIP3     OH2      OT      -0.834000       15.9994           0
     25373 WT1      8330     TIP3     H1       HT       0.417000        1.0080           0
     25374 WT1      8330     TIP3     H2       HT       0.417000        1.0080           0
     25375 WT1      8331     TIP3     OH2      OT      -0.834000       15.9994           0
     25376 WT1      8331     TIP3     H1       HT       0.417000        1.0080           0
     25377 WT1      8331     TIP3     H2       HT       0.417000        1.0080           0
     25378 WT1      8332     TIP3     OH2      OT      -0.834000       15.9994           0
     25379 WT1      8332     TIP3     H1       HT       0.417000        1.0080           0
     25380 WT1      8332     TIP3     H2       HT       0.417000        1.0080           0
     25381 WT1      8333     TIP3     OH2      OT      -0.834000       15.9994           0
     25382 WT1      8333     TIP3     H1       HT       0.417000        1.0080           0
     25383 WT1      8333     TIP3     H2       HT       0.417000        1.0080           0
     25384 WT1      8334     TIP3     OH2      OT      -0.834000       15.9994           0
     25385 WT1      8334     TIP3     H1       HT       0.417000        1.0080           0
     25386 WT1      8334     TIP3     H2       HT       0.417000        1.0080           0
     25387 WT1      8335     TIP3     OH2      OT      -0.834000       15.9994           0
     25388 WT1      8335     TIP3     H1       HT       0.417000        1.0080           0
     25389 WT1      8335     TIP3     H2       HT       0.417000        1.0080           0
     25390 WT1      8336     TIP3     OH2      OT      -0.834000       15.9994           0
     25391 WT1      8336     TIP3     H1       HT       0.417000        1.0080           0
     25392 WT1      8336     TIP3     H2       HT       0.417000        1.0080           0
     25393 WT1      8337     TIP3     OH2      OT      -0.834000       15.9994           0
     25394 WT1      8337     TIP3     H1       HT       0.417000        1.0080           0
     25395 WT1      8337     TIP3     H2       HT       0.417000        1.0080           0
     25396 WT1      8338     TIP3     OH2      OT      -0.834000       15.9994           0
     25397 WT1      8338     TIP3     H1       HT       0.417000        1.0080           0
     25398 WT1      8338     TIP3     H2       HT       0.417000        1.0080           0
     25399 WT1      8339     TIP3     OH2      OT      -0.834000       15.9994           0
     25400 WT1      8339     TIP3     H1       HT       0.417000        1.0080           0
     25401 WT1      8339     TIP3     H2       HT       0.417000        1.0080           0
     25402 WT1      8340     TIP3     OH2      OT      -0.834000       15.9994           0
     25403 WT1      8340     TIP3     H1       HT       0.417000        1.0080           0
     25404 WT1      8340     TIP3     H2       HT       0.417000        1.0080           0
     25405 WT1      8341     TIP3     OH2      OT      -0.834000       15.9994           0
     25406 WT1      8341     TIP3     H1       HT       0.417000        1.0080           0
     25407 WT1      8341     TIP3     H2       HT       0.417000        1.0080           0
     25408 WT1      8342     TIP3     OH2      OT      -0.834000       15.9994           0
     25409 WT1      8342     TIP3     H1       HT       0.417000        1.0080           0
     25410 WT1      8342     TIP3     H2       HT       0.417000        1.0080           0
     25411 WT1      8343     TIP3     OH2      OT      -0.834000       15.9994           0
     25412 WT1      8343     TIP3     H1       HT       0.417000        1.0080           0
     25413 WT1      8343     TIP3     H2       HT       0.417000        1.0080           0
     25414 WT1      8344     TIP3     OH2      OT      -0.834000       15.9994           0
     25415 WT1      8344     TIP3     H1       HT       0.417000        1.0080           0
     25416 WT1      8344     TIP3     H2       HT       0.417000        1.0080           0
     25417 WT1      8345     TIP3     OH2      OT      -0.834000       15.9994           0
     25418 WT1      8345     TIP3     H1       HT       0.417000        1.0080           0
     25419 WT1      8345     TIP3     H2       HT       0.417000        1.0080           0
     25420 WT1      8346     TIP3     OH2      OT      -0.834000       15.9994           0
     25421 WT1      8346     TIP3     H1       HT       0.417000        1.0080           0
     25422 WT1      8346     TIP3     H2       HT       0.417000        1.0080           0
     25423 WT1      8347     TIP3     OH2      OT      -0.834000       15.9994           0
     25424 WT1      8347     TIP3     H1       HT       0.417000        1.0080           0
     25425 WT1      8347     TIP3     H2       HT       0.417000        1.0080           0
     25426 WT1      8348     TIP3     OH2      OT      -0.834000       15.9994           0
     25427 WT1      8348     TIP3     H1       HT       0.417000        1.0080           0
     25428 WT1      8348     TIP3     H2       HT       0.417000        1.0080           0
     25429 WT1      8349     TIP3     OH2      OT      -0.834000       15.9994           0
     25430 WT1      8349     TIP3     H1       HT       0.417000        1.0080           0
     25431 WT1      8349     TIP3     H2       HT       0.417000        1.0080           0
     25432 WT1      8350     TIP3     OH2      OT      -0.834000       15.9994           0
     25433 WT1      8350     TIP3     H1       HT       0.417000        1.0080           0
     25434 WT1      8350     TIP3     H2       HT       0.417000        1.0080           0
     25435 WT1      8351     TIP3     OH2      OT      -0.834000       15.9994           0
     25436 WT1      8351     TIP3     H1       HT       0.417000        1.0080           0
     25437 WT1      8351     TIP3     H2       HT       0.417000        1.0080           0
     25438 WT1      8352     TIP3     OH2      OT      -0.834000       15.9994           0
     25439 WT1      8352     TIP3     H1       HT       0.417000        1.0080           0
     25440 WT1      8352     TIP3     H2       HT       0.417000        1.0080           0
     25441 WT1      8353     TIP3     OH2      OT      -0.834000       15.9994           0
     25442 WT1      8353     TIP3     H1       HT       0.417000        1.0080           0
     25443 WT1      8353     TIP3     H2       HT       0.417000        1.0080           0
     25444 WT1      8354     TIP3     OH2      OT      -0.834000       15.9994           0
     25445 WT1      8354     TIP3     H1       HT       0.417000        1.0080           0
     25446 WT1      8354     TIP3     H2       HT       0.417000        1.0080           0
     25447 WT1      8355     TIP3     OH2      OT      -0.834000       15.9994           0
     25448 WT1      8355     TIP3     H1       HT       0.417000        1.0080           0
     25449 WT1      8355     TIP3     H2       HT       0.417000        1.0080           0
     25450 WT1      8356     TIP3     OH2      OT      -0.834000       15.9994           0
     25451 WT1      8356     TIP3     H1       HT       0.417000        1.0080           0
     25452 WT1      8356     TIP3     H2       HT       0.417000        1.0080           0
     25453 WT1      8357     TIP3     OH2      OT      -0.834000       15.9994           0
     25454 WT1      8357     TIP3     H1       HT       0.417000        1.0080           0
     25455 WT1      8357     TIP3     H2       HT       0.417000        1.0080           0
     25456 WT1      8358     TIP3     OH2      OT      -0.834000       15.9994           0
     25457 WT1      8358     TIP3     H1       HT       0.417000        1.0080           0
     25458 WT1      8358     TIP3     H2       HT       0.417000        1.0080           0
     25459 WT1      8359     TIP3     OH2      OT      -0.834000       15.9994           0
     25460 WT1      8359     TIP3     H1       HT       0.417000        1.0080           0
     25461 WT1      8359     TIP3     H2       HT       0.417000        1.0080           0
     25462 WT1      8360     TIP3     OH2      OT      -0.834000       15.9994           0
     25463 WT1      8360     TIP3     H1       HT       0.417000        1.0080           0
     25464 WT1      8360     TIP3     H2       HT       0.417000        1.0080           0
     25465 WT1      8361     TIP3     OH2      OT      -0.834000       15.9994           0
     25466 WT1      8361     TIP3     H1       HT       0.417000        1.0080           0
     25467 WT1      8361     TIP3     H2       HT       0.417000        1.0080           0
     25468 WT1      8362     TIP3     OH2      OT      -0.834000       15.9994           0
     25469 WT1      8362     TIP3     H1       HT       0.417000        1.0080           0
     25470 WT1      8362     TIP3     H2       HT       0.417000        1.0080           0
     25471 WT1      8363     TIP3     OH2      OT      -0.834000       15.9994           0
     25472 WT1      8363     TIP3     H1       HT       0.417000        1.0080           0
     25473 WT1      8363     TIP3     H2       HT       0.417000        1.0080           0
     25474 WT1      8364     TIP3     OH2      OT      -0.834000       15.9994           0
     25475 WT1      8364     TIP3     H1       HT       0.417000        1.0080           0
     25476 WT1      8364     TIP3     H2       HT       0.417000        1.0080           0
     25477 WT1      8365     TIP3     OH2      OT      -0.834000       15.9994           0
     25478 WT1      8365     TIP3     H1       HT       0.417000        1.0080           0
     25479 WT1      8365     TIP3     H2       HT       0.417000        1.0080           0
     25480 WT1      8366     TIP3     OH2      OT      -0.834000       15.9994           0
     25481 WT1      8366     TIP3     H1       HT       0.417000        1.0080           0
     25482 WT1      8366     TIP3     H2       HT       0.417000        1.0080           0
     25483 WT1      8367     TIP3     OH2      OT      -0.834000       15.9994           0
     25484 WT1      8367     TIP3     H1       HT       0.417000        1.0080           0
     25485 WT1      8367     TIP3     H2       HT       0.417000        1.0080           0
     25486 WT1      8368     TIP3     OH2      OT      -0.834000       15.9994           0
     25487 WT1      8368     TIP3     H1       HT       0.417000        1.0080           0
     25488 WT1      8368     TIP3     H2       HT       0.417000        1.0080           0
     25489 WT1      8369     TIP3     OH2      OT      -0.834000       15.9994           0
     25490 WT1      8369     TIP3     H1       HT       0.417000        1.0080           0
     25491 WT1      8369     TIP3     H2       HT       0.417000        1.0080           0
     25492 WT1      8370     TIP3     OH2      OT      -0.834000       15.9994           0
     25493 WT1      8370     TIP3     H1       HT       0.417000        1.0080           0
     25494 WT1      8370     TIP3     H2       HT       0.417000        1.0080           0
     25495 WT1      8371     TIP3     OH2      OT      -0.834000       15.9994           0
     25496 WT1      8371     TIP3     H1       HT       0.417000        1.0080           0
     25497 WT1      8371     TIP3     H2       HT       0.417000        1.0080           0
     25498 WT1      8372     TIP3     OH2      OT      -0.834000       15.9994           0
     25499 WT1      8372     TIP3     H1       HT       0.417000        1.0080           0
     25500 WT1      8372     TIP3     H2       HT       0.417000        1.0080           0
     25501 WT1      8373     TIP3     OH2      OT      -0.834000       15.9994           0
     25502 WT1      8373     TIP3     H1       HT       0.417000        1.0080           0
     25503 WT1      8373     TIP3     H2       HT       0.417000        1.0080           0
     25504 WT1      8374     TIP3     OH2      OT      -0.834000       15.9994           0
     25505 WT1      8374     TIP3     H1       HT       0.417000        1.0080           0
     25506 WT1      8374     TIP3     H2       HT       0.417000        1.0080           0
     25507 WT1      8375     TIP3     OH2      OT      -0.834000       15.9994           0
     25508 WT1      8375     TIP3     H1       HT       0.417000        1.0080           0
     25509 WT1      8375     TIP3     H2       HT       0.417000        1.0080           0
     25510 WT1      8376     TIP3     OH2      OT      -0.834000       15.9994           0
     25511 WT1      8376     TIP3     H1       HT       0.417000        1.0080           0
     25512 WT1      8376     TIP3     H2       HT       0.417000        1.0080           0
     25513 WT1      8377     TIP3     OH2      OT      -0.834000       15.9994           0
     25514 WT1      8377     TIP3     H1       HT       0.417000        1.0080           0
     25515 WT1      8377     TIP3     H2       HT       0.417000        1.0080           0
     25516 WT1      8378     TIP3     OH2      OT      -0.834000       15.9994           0
     25517 WT1      8378     TIP3     H1       HT       0.417000        1.0080           0
     25518 WT1      8378     TIP3     H2       HT       0.417000        1.0080           0
     25519 WT1      8379     TIP3     OH2      OT      -0.834000       15.9994           0
     25520 WT1      8379     TIP3     H1       HT       0.417000        1.0080           0
     25521 WT1      8379     TIP3     H2       HT       0.417000        1.0080           0
     25522 WT1      8380     TIP3     OH2      OT      -0.834000       15.9994           0
     25523 WT1      8380     TIP3     H1       HT       0.417000        1.0080           0
     25524 WT1      8380     TIP3     H2       HT       0.417000        1.0080           0
     25525 WT1      8381     TIP3     OH2      OT      -0.834000       15.9994           0
     25526 WT1      8381     TIP3     H1       HT       0.417000        1.0080           0
     25527 WT1      8381     TIP3     H2       HT       0.417000        1.0080           0
     25528 WT1      8382     TIP3     OH2      OT      -0.834000       15.9994           0
     25529 WT1      8382     TIP3     H1       HT       0.417000        1.0080           0
     25530 WT1      8382     TIP3     H2       HT       0.417000        1.0080           0
     25531 WT1      8383     TIP3     OH2      OT      -0.834000       15.9994           0
     25532 WT1      8383     TIP3     H1       HT       0.417000        1.0080           0
     25533 WT1      8383     TIP3     H2       HT       0.417000        1.0080           0
     25534 WT1      8384     TIP3     OH2      OT      -0.834000       15.9994           0
     25535 WT1      8384     TIP3     H1       HT       0.417000        1.0080           0
     25536 WT1      8384     TIP3     H2       HT       0.417000        1.0080           0
     25537 WT1      8385     TIP3     OH2      OT      -0.834000       15.9994           0
     25538 WT1      8385     TIP3     H1       HT       0.417000        1.0080           0
     25539 WT1      8385     TIP3     H2       HT       0.417000        1.0080           0
     25540 WT1      8386     TIP3     OH2      OT      -0.834000       15.9994           0
     25541 WT1      8386     TIP3     H1       HT       0.417000        1.0080           0
     25542 WT1      8386     TIP3     H2       HT       0.417000        1.0080           0
     25543 WT1      8387     TIP3     OH2      OT      -0.834000       15.9994           0
     25544 WT1      8387     TIP3     H1       HT       0.417000        1.0080           0
     25545 WT1      8387     TIP3     H2       HT       0.417000        1.0080           0
     25546 WT1      8388     TIP3     OH2      OT      -0.834000       15.9994           0
     25547 WT1      8388     TIP3     H1       HT       0.417000        1.0080           0
     25548 WT1      8388     TIP3     H2       HT       0.417000        1.0080           0
     25549 WT1      8389     TIP3     OH2      OT      -0.834000       15.9994           0
     25550 WT1      8389     TIP3     H1       HT       0.417000        1.0080           0
     25551 WT1      8389     TIP3     H2       HT       0.417000        1.0080           0
     25552 WT1      8390     TIP3     OH2      OT      -0.834000       15.9994           0
     25553 WT1      8390     TIP3     H1       HT       0.417000        1.0080           0
     25554 WT1      8390     TIP3     H2       HT       0.417000        1.0080           0
     25555 WT1      8391     TIP3     OH2      OT      -0.834000       15.9994           0
     25556 WT1      8391     TIP3     H1       HT       0.417000        1.0080           0
     25557 WT1      8391     TIP3     H2       HT       0.417000        1.0080           0
     25558 WT1      8392     TIP3     OH2      OT      -0.834000       15.9994           0
     25559 WT1      8392     TIP3     H1       HT       0.417000        1.0080           0
     25560 WT1      8392     TIP3     H2       HT       0.417000        1.0080           0
     25561 WT1      8393     TIP3     OH2      OT      -0.834000       15.9994           0
     25562 WT1      8393     TIP3     H1       HT       0.417000        1.0080           0
     25563 WT1      8393     TIP3     H2       HT       0.417000        1.0080           0
     25564 WT1      8394     TIP3     OH2      OT      -0.834000       15.9994           0
     25565 WT1      8394     TIP3     H1       HT       0.417000        1.0080           0
     25566 WT1      8394     TIP3     H2       HT       0.417000        1.0080           0
     25567 WT1      8396     TIP3     OH2      OT      -0.834000       15.9994           0
     25568 WT1      8396     TIP3     H1       HT       0.417000        1.0080           0
     25569 WT1      8396     TIP3     H2       HT       0.417000        1.0080           0
     25570 WT1      8397     TIP3     OH2      OT      -0.834000       15.9994           0
     25571 WT1      8397     TIP3     H1       HT       0.417000        1.0080           0
     25572 WT1      8397     TIP3     H2       HT       0.417000        1.0080           0
     25573 WT1      8398     TIP3     OH2      OT      -0.834000       15.9994           0
     25574 WT1      8398     TIP3     H1       HT       0.417000        1.0080           0
     25575 WT1      8398     TIP3     H2       HT       0.417000        1.0080           0
     25576 WT1      8399     TIP3     OH2      OT      -0.834000       15.9994           0
     25577 WT1      8399     TIP3     H1       HT       0.417000        1.0080           0
     25578 WT1      8399     TIP3     H2       HT       0.417000        1.0080           0
     25579 WT1      8400     TIP3     OH2      OT      -0.834000       15.9994           0
     25580 WT1      8400     TIP3     H1       HT       0.417000        1.0080           0
     25581 WT1      8400     TIP3     H2       HT       0.417000        1.0080           0
     25582 WT1      8401     TIP3     OH2      OT      -0.834000       15.9994           0
     25583 WT1      8401     TIP3     H1       HT       0.417000        1.0080           0
     25584 WT1      8401     TIP3     H2       HT       0.417000        1.0080           0
     25585 WT1      8402     TIP3     OH2      OT      -0.834000       15.9994           0
     25586 WT1      8402     TIP3     H1       HT       0.417000        1.0080           0
     25587 WT1      8402     TIP3     H2       HT       0.417000        1.0080           0
     25588 WT1      8403     TIP3     OH2      OT      -0.834000       15.9994           0
     25589 WT1      8403     TIP3     H1       HT       0.417000        1.0080           0
     25590 WT1      8403     TIP3     H2       HT       0.417000        1.0080           0
     25591 WT1      8404     TIP3     OH2      OT      -0.834000       15.9994           0
     25592 WT1      8404     TIP3     H1       HT       0.417000        1.0080           0
     25593 WT1      8404     TIP3     H2       HT       0.417000        1.0080           0
     25594 WT1      8405     TIP3     OH2      OT      -0.834000       15.9994           0
     25595 WT1      8405     TIP3     H1       HT       0.417000        1.0080           0
     25596 WT1      8405     TIP3     H2       HT       0.417000        1.0080           0
     25597 WT1      8406     TIP3     OH2      OT      -0.834000       15.9994           0
     25598 WT1      8406     TIP3     H1       HT       0.417000        1.0080           0
     25599 WT1      8406     TIP3     H2       HT       0.417000        1.0080           0
     25600 WT1      8407     TIP3     OH2      OT      -0.834000       15.9994           0
     25601 WT1      8407     TIP3     H1       HT       0.417000        1.0080           0
     25602 WT1      8407     TIP3     H2       HT       0.417000        1.0080           0
     25603 WT1      8408     TIP3     OH2      OT      -0.834000       15.9994           0
     25604 WT1      8408     TIP3     H1       HT       0.417000        1.0080           0
     25605 WT1      8408     TIP3     H2       HT       0.417000        1.0080           0
     25606 WT1      8409     TIP3     OH2      OT      -0.834000       15.9994           0
     25607 WT1      8409     TIP3     H1       HT       0.417000        1.0080           0
     25608 WT1      8409     TIP3     H2       HT       0.417000        1.0080           0
     25609 WT1      8410     TIP3     OH2      OT      -0.834000       15.9994           0
     25610 WT1      8410     TIP3     H1       HT       0.417000        1.0080           0
     25611 WT1      8410     TIP3     H2       HT       0.417000        1.0080           0
     25612 WT1      8411     TIP3     OH2      OT      -0.834000       15.9994           0
     25613 WT1      8411     TIP3     H1       HT       0.417000        1.0080           0
     25614 WT1      8411     TIP3     H2       HT       0.417000        1.0080           0
     25615 WT1      8412     TIP3     OH2      OT      -0.834000       15.9994           0
     25616 WT1      8412     TIP3     H1       HT       0.417000        1.0080           0
     25617 WT1      8412     TIP3     H2       HT       0.417000        1.0080           0
     25618 WT1      8413     TIP3     OH2      OT      -0.834000       15.9994           0
     25619 WT1      8413     TIP3     H1       HT       0.417000        1.0080           0
     25620 WT1      8413     TIP3     H2       HT       0.417000        1.0080           0
     25621 WT1      8414     TIP3     OH2      OT      -0.834000       15.9994           0
     25622 WT1      8414     TIP3     H1       HT       0.417000        1.0080           0
     25623 WT1      8414     TIP3     H2       HT       0.417000        1.0080           0
     25624 WT1      8415     TIP3     OH2      OT      -0.834000       15.9994           0
     25625 WT1      8415     TIP3     H1       HT       0.417000        1.0080           0
     25626 WT1      8415     TIP3     H2       HT       0.417000        1.0080           0
     25627 WT1      8416     TIP3     OH2      OT      -0.834000       15.9994           0
     25628 WT1      8416     TIP3     H1       HT       0.417000        1.0080           0
     25629 WT1      8416     TIP3     H2       HT       0.417000        1.0080           0
     25630 WT1      8417     TIP3     OH2      OT      -0.834000       15.9994           0
     25631 WT1      8417     TIP3     H1       HT       0.417000        1.0080           0
     25632 WT1      8417     TIP3     H2       HT       0.417000        1.0080           0
     25633 WT1      8418     TIP3     OH2      OT      -0.834000       15.9994           0
     25634 WT1      8418     TIP3     H1       HT       0.417000        1.0080           0
     25635 WT1      8418     TIP3     H2       HT       0.417000        1.0080           0
     25636 WT1      8419     TIP3     OH2      OT      -0.834000       15.9994           0
     25637 WT1      8419     TIP3     H1       HT       0.417000        1.0080           0
     25638 WT1      8419     TIP3     H2       HT       0.417000        1.0080           0
     25639 WT1      8420     TIP3     OH2      OT      -0.834000       15.9994           0
     25640 WT1      8420     TIP3     H1       HT       0.417000        1.0080           0
     25641 WT1      8420     TIP3     H2       HT       0.417000        1.0080           0
     25642 WT1      8422     TIP3     OH2      OT      -0.834000       15.9994           0
     25643 WT1      8422     TIP3     H1       HT       0.417000        1.0080           0
     25644 WT1      8422     TIP3     H2       HT       0.417000        1.0080           0
     25645 WT1      8423     TIP3     OH2      OT      -0.834000       15.9994           0
     25646 WT1      8423     TIP3     H1       HT       0.417000        1.0080           0
     25647 WT1      8423     TIP3     H2       HT       0.417000        1.0080           0
     25648 WT1      8424     TIP3     OH2      OT      -0.834000       15.9994           0
     25649 WT1      8424     TIP3     H1       HT       0.417000        1.0080           0
     25650 WT1      8424     TIP3     H2       HT       0.417000        1.0080           0
     25651 WT1      8425     TIP3     OH2      OT      -0.834000       15.9994           0
     25652 WT1      8425     TIP3     H1       HT       0.417000        1.0080           0
     25653 WT1      8425     TIP3     H2       HT       0.417000        1.0080           0
     25654 WT1      8426     TIP3     OH2      OT      -0.834000       15.9994           0
     25655 WT1      8426     TIP3     H1       HT       0.417000        1.0080           0
     25656 WT1      8426     TIP3     H2       HT       0.417000        1.0080           0
     25657 WT1      8427     TIP3     OH2      OT      -0.834000       15.9994           0
     25658 WT1      8427     TIP3     H1       HT       0.417000        1.0080           0
     25659 WT1      8427     TIP3     H2       HT       0.417000        1.0080           0
     25660 WT1      8428     TIP3     OH2      OT      -0.834000       15.9994           0
     25661 WT1      8428     TIP3     H1       HT       0.417000        1.0080           0
     25662 WT1      8428     TIP3     H2       HT       0.417000        1.0080           0
     25663 WT1      8429     TIP3     OH2      OT      -0.834000       15.9994           0
     25664 WT1      8429     TIP3     H1       HT       0.417000        1.0080           0
     25665 WT1      8429     TIP3     H2       HT       0.417000        1.0080           0
     25666 WT1      8430     TIP3     OH2      OT      -0.834000       15.9994           0
     25667 WT1      8430     TIP3     H1       HT       0.417000        1.0080           0
     25668 WT1      8430     TIP3     H2       HT       0.417000        1.0080           0
     25669 WT1      8431     TIP3     OH2      OT      -0.834000       15.9994           0
     25670 WT1      8431     TIP3     H1       HT       0.417000        1.0080           0
     25671 WT1      8431     TIP3     H2       HT       0.417000        1.0080           0
     25672 WT1      8432     TIP3     OH2      OT      -0.834000       15.9994           0
     25673 WT1      8432     TIP3     H1       HT       0.417000        1.0080           0
     25674 WT1      8432     TIP3     H2       HT       0.417000        1.0080           0
     25675 WT1      8433     TIP3     OH2      OT      -0.834000       15.9994           0
     25676 WT1      8433     TIP3     H1       HT       0.417000        1.0080           0
     25677 WT1      8433     TIP3     H2       HT       0.417000        1.0080           0
     25678 WT1      8434     TIP3     OH2      OT      -0.834000       15.9994           0
     25679 WT1      8434     TIP3     H1       HT       0.417000        1.0080           0
     25680 WT1      8434     TIP3     H2       HT       0.417000        1.0080           0
     25681 WT1      8435     TIP3     OH2      OT      -0.834000       15.9994           0
     25682 WT1      8435     TIP3     H1       HT       0.417000        1.0080           0
     25683 WT1      8435     TIP3     H2       HT       0.417000        1.0080           0
     25684 WT1      8436     TIP3     OH2      OT      -0.834000       15.9994           0
     25685 WT1      8436     TIP3     H1       HT       0.417000        1.0080           0
     25686 WT1      8436     TIP3     H2       HT       0.417000        1.0080           0
     25687 WT1      8437     TIP3     OH2      OT      -0.834000       15.9994           0
     25688 WT1      8437     TIP3     H1       HT       0.417000        1.0080           0
     25689 WT1      8437     TIP3     H2       HT       0.417000        1.0080           0
     25690 WT1      8438     TIP3     OH2      OT      -0.834000       15.9994           0
     25691 WT1      8438     TIP3     H1       HT       0.417000        1.0080           0
     25692 WT1      8438     TIP3     H2       HT       0.417000        1.0080           0
     25693 WT1      8439     TIP3     OH2      OT      -0.834000       15.9994           0
     25694 WT1      8439     TIP3     H1       HT       0.417000        1.0080           0
     25695 WT1      8439     TIP3     H2       HT       0.417000        1.0080           0
     25696 WT1      8441     TIP3     OH2      OT      -0.834000       15.9994           0
     25697 WT1      8441     TIP3     H1       HT       0.417000        1.0080           0
     25698 WT1      8441     TIP3     H2       HT       0.417000        1.0080           0
     25699 WT1      8442     TIP3     OH2      OT      -0.834000       15.9994           0
     25700 WT1      8442     TIP3     H1       HT       0.417000        1.0080           0
     25701 WT1      8442     TIP3     H2       HT       0.417000        1.0080           0
     25702 WT1      8443     TIP3     OH2      OT      -0.834000       15.9994           0
     25703 WT1      8443     TIP3     H1       HT       0.417000        1.0080           0
     25704 WT1      8443     TIP3     H2       HT       0.417000        1.0080           0
     25705 WT1      8444     TIP3     OH2      OT      -0.834000       15.9994           0
     25706 WT1      8444     TIP3     H1       HT       0.417000        1.0080           0
     25707 WT1      8444     TIP3     H2       HT       0.417000        1.0080           0
     25708 WT1      8445     TIP3     OH2      OT      -0.834000       15.9994           0
     25709 WT1      8445     TIP3     H1       HT       0.417000        1.0080           0
     25710 WT1      8445     TIP3     H2       HT       0.417000        1.0080           0
     25711 WT1      8446     TIP3     OH2      OT      -0.834000       15.9994           0
     25712 WT1      8446     TIP3     H1       HT       0.417000        1.0080           0
     25713 WT1      8446     TIP3     H2       HT       0.417000        1.0080           0
     25714 WT1      8448     TIP3     OH2      OT      -0.834000       15.9994           0
     25715 WT1      8448     TIP3     H1       HT       0.417000        1.0080           0
     25716 WT1      8448     TIP3     H2       HT       0.417000        1.0080           0
     25717 WT1      8450     TIP3     OH2      OT      -0.834000       15.9994           0
     25718 WT1      8450     TIP3     H1       HT       0.417000        1.0080           0
     25719 WT1      8450     TIP3     H2       HT       0.417000        1.0080           0
     25720 WT1      8451     TIP3     OH2      OT      -0.834000       15.9994           0
     25721 WT1      8451     TIP3     H1       HT       0.417000        1.0080           0
     25722 WT1      8451     TIP3     H2       HT       0.417000        1.0080           0
     25723 WT1      8453     TIP3     OH2      OT      -0.834000       15.9994           0
     25724 WT1      8453     TIP3     H1       HT       0.417000        1.0080           0
     25725 WT1      8453     TIP3     H2       HT       0.417000        1.0080           0
     25726 WT1      8454     TIP3     OH2      OT      -0.834000       15.9994           0
     25727 WT1      8454     TIP3     H1       HT       0.417000        1.0080           0
     25728 WT1      8454     TIP3     H2       HT       0.417000        1.0080           0
     25729 WT1      8455     TIP3     OH2      OT      -0.834000       15.9994           0
     25730 WT1      8455     TIP3     H1       HT       0.417000        1.0080           0
     25731 WT1      8455     TIP3     H2       HT       0.417000        1.0080           0
     25732 WT1      8456     TIP3     OH2      OT      -0.834000       15.9994           0
     25733 WT1      8456     TIP3     H1       HT       0.417000        1.0080           0
     25734 WT1      8456     TIP3     H2       HT       0.417000        1.0080           0
     25735 WT1      8457     TIP3     OH2      OT      -0.834000       15.9994           0
     25736 WT1      8457     TIP3     H1       HT       0.417000        1.0080           0
     25737 WT1      8457     TIP3     H2       HT       0.417000        1.0080           0
     25738 WT1      8458     TIP3     OH2      OT      -0.834000       15.9994           0
     25739 WT1      8458     TIP3     H1       HT       0.417000        1.0080           0
     25740 WT1      8458     TIP3     H2       HT       0.417000        1.0080           0
     25741 WT1      8459     TIP3     OH2      OT      -0.834000       15.9994           0
     25742 WT1      8459     TIP3     H1       HT       0.417000        1.0080           0
     25743 WT1      8459     TIP3     H2       HT       0.417000        1.0080           0
     25744 WT1      8460     TIP3     OH2      OT      -0.834000       15.9994           0
     25745 WT1      8460     TIP3     H1       HT       0.417000        1.0080           0
     25746 WT1      8460     TIP3     H2       HT       0.417000        1.0080           0
     25747 WT1      8461     TIP3     OH2      OT      -0.834000       15.9994           0
     25748 WT1      8461     TIP3     H1       HT       0.417000        1.0080           0
     25749 WT1      8461     TIP3     H2       HT       0.417000        1.0080           0
     25750 WT1      8462     TIP3     OH2      OT      -0.834000       15.9994           0
     25751 WT1      8462     TIP3     H1       HT       0.417000        1.0080           0
     25752 WT1      8462     TIP3     H2       HT       0.417000        1.0080           0
     25753 WT1      8463     TIP3     OH2      OT      -0.834000       15.9994           0
     25754 WT1      8463     TIP3     H1       HT       0.417000        1.0080           0
     25755 WT1      8463     TIP3     H2       HT       0.417000        1.0080           0
     25756 WT1      8464     TIP3     OH2      OT      -0.834000       15.9994           0
     25757 WT1      8464     TIP3     H1       HT       0.417000        1.0080           0
     25758 WT1      8464     TIP3     H2       HT       0.417000        1.0080           0
     25759 WT1      8465     TIP3     OH2      OT      -0.834000       15.9994           0
     25760 WT1      8465     TIP3     H1       HT       0.417000        1.0080           0
     25761 WT1      8465     TIP3     H2       HT       0.417000        1.0080           0
     25762 WT1      8466     TIP3     OH2      OT      -0.834000       15.9994           0
     25763 WT1      8466     TIP3     H1       HT       0.417000        1.0080           0
     25764 WT1      8466     TIP3     H2       HT       0.417000        1.0080           0
     25765 WT1      8467     TIP3     OH2      OT      -0.834000       15.9994           0
     25766 WT1      8467     TIP3     H1       HT       0.417000        1.0080           0
     25767 WT1      8467     TIP3     H2       HT       0.417000        1.0080           0
     25768 WT1      8468     TIP3     OH2      OT      -0.834000       15.9994           0
     25769 WT1      8468     TIP3     H1       HT       0.417000        1.0080           0
     25770 WT1      8468     TIP3     H2       HT       0.417000        1.0080           0
     25771 WT1      8469     TIP3     OH2      OT      -0.834000       15.9994           0
     25772 WT1      8469     TIP3     H1       HT       0.417000        1.0080           0
     25773 WT1      8469     TIP3     H2       HT       0.417000        1.0080           0
     25774 WT1      8470     TIP3     OH2      OT      -0.834000       15.9994           0
     25775 WT1      8470     TIP3     H1       HT       0.417000        1.0080           0
     25776 WT1      8470     TIP3     H2       HT       0.417000        1.0080           0
     25777 WT1      8471     TIP3     OH2      OT      -0.834000       15.9994           0
     25778 WT1      8471     TIP3     H1       HT       0.417000        1.0080           0
     25779 WT1      8471     TIP3     H2       HT       0.417000        1.0080           0
     25780 WT1      8472     TIP3     OH2      OT      -0.834000       15.9994           0
     25781 WT1      8472     TIP3     H1       HT       0.417000        1.0080           0
     25782 WT1      8472     TIP3     H2       HT       0.417000        1.0080           0
     25783 WT1      8473     TIP3     OH2      OT      -0.834000       15.9994           0
     25784 WT1      8473     TIP3     H1       HT       0.417000        1.0080           0
     25785 WT1      8473     TIP3     H2       HT       0.417000        1.0080           0
     25786 WT1      8474     TIP3     OH2      OT      -0.834000       15.9994           0
     25787 WT1      8474     TIP3     H1       HT       0.417000        1.0080           0
     25788 WT1      8474     TIP3     H2       HT       0.417000        1.0080           0
     25789 WT1      8475     TIP3     OH2      OT      -0.834000       15.9994           0
     25790 WT1      8475     TIP3     H1       HT       0.417000        1.0080           0
     25791 WT1      8475     TIP3     H2       HT       0.417000        1.0080           0
     25792 WT1      8476     TIP3     OH2      OT      -0.834000       15.9994           0
     25793 WT1      8476     TIP3     H1       HT       0.417000        1.0080           0
     25794 WT1      8476     TIP3     H2       HT       0.417000        1.0080           0
     25795 WT1      8477     TIP3     OH2      OT      -0.834000       15.9994           0
     25796 WT1      8477     TIP3     H1       HT       0.417000        1.0080           0
     25797 WT1      8477     TIP3     H2       HT       0.417000        1.0080           0
     25798 WT1      8478     TIP3     OH2      OT      -0.834000       15.9994           0
     25799 WT1      8478     TIP3     H1       HT       0.417000        1.0080           0
     25800 WT1      8478     TIP3     H2       HT       0.417000        1.0080           0
     25801 WT1      8479     TIP3     OH2      OT      -0.834000       15.9994           0
     25802 WT1      8479     TIP3     H1       HT       0.417000        1.0080           0
     25803 WT1      8479     TIP3     H2       HT       0.417000        1.0080           0
     25804 WT1      8480     TIP3     OH2      OT      -0.834000       15.9994           0
     25805 WT1      8480     TIP3     H1       HT       0.417000        1.0080           0
     25806 WT1      8480     TIP3     H2       HT       0.417000        1.0080           0
     25807 WT1      8481     TIP3     OH2      OT      -0.834000       15.9994           0
     25808 WT1      8481     TIP3     H1       HT       0.417000        1.0080           0
     25809 WT1      8481     TIP3     H2       HT       0.417000        1.0080           0
     25810 WT1      8482     TIP3     OH2      OT      -0.834000       15.9994           0
     25811 WT1      8482     TIP3     H1       HT       0.417000        1.0080           0
     25812 WT1      8482     TIP3     H2       HT       0.417000        1.0080           0
     25813 WT1      8483     TIP3     OH2      OT      -0.834000       15.9994           0
     25814 WT1      8483     TIP3     H1       HT       0.417000        1.0080           0
     25815 WT1      8483     TIP3     H2       HT       0.417000        1.0080           0
     25816 WT1      8484     TIP3     OH2      OT      -0.834000       15.9994           0
     25817 WT1      8484     TIP3     H1       HT       0.417000        1.0080           0
     25818 WT1      8484     TIP3     H2       HT       0.417000        1.0080           0
     25819 WT1      8485     TIP3     OH2      OT      -0.834000       15.9994           0
     25820 WT1      8485     TIP3     H1       HT       0.417000        1.0080           0
     25821 WT1      8485     TIP3     H2       HT       0.417000        1.0080           0
     25822 WT1      8486     TIP3     OH2      OT      -0.834000       15.9994           0
     25823 WT1      8486     TIP3     H1       HT       0.417000        1.0080           0
     25824 WT1      8486     TIP3     H2       HT       0.417000        1.0080           0
     25825 WT1      8487     TIP3     OH2      OT      -0.834000       15.9994           0
     25826 WT1      8487     TIP3     H1       HT       0.417000        1.0080           0
     25827 WT1      8487     TIP3     H2       HT       0.417000        1.0080           0
     25828 WT1      8488     TIP3     OH2      OT      -0.834000       15.9994           0
     25829 WT1      8488     TIP3     H1       HT       0.417000        1.0080           0
     25830 WT1      8488     TIP3     H2       HT       0.417000        1.0080           0
     25831 WT1      8489     TIP3     OH2      OT      -0.834000       15.9994           0
     25832 WT1      8489     TIP3     H1       HT       0.417000        1.0080           0
     25833 WT1      8489     TIP3     H2       HT       0.417000        1.0080           0
     25834 WT1      8490     TIP3     OH2      OT      -0.834000       15.9994           0
     25835 WT1      8490     TIP3     H1       HT       0.417000        1.0080           0
     25836 WT1      8490     TIP3     H2       HT       0.417000        1.0080           0
     25837 WT1      8491     TIP3     OH2      OT      -0.834000       15.9994           0
     25838 WT1      8491     TIP3     H1       HT       0.417000        1.0080           0
     25839 WT1      8491     TIP3     H2       HT       0.417000        1.0080           0
     25840 WT1      8492     TIP3     OH2      OT      -0.834000       15.9994           0
     25841 WT1      8492     TIP3     H1       HT       0.417000        1.0080           0
     25842 WT1      8492     TIP3     H2       HT       0.417000        1.0080           0
     25843 WT1      8493     TIP3     OH2      OT      -0.834000       15.9994           0
     25844 WT1      8493     TIP3     H1       HT       0.417000        1.0080           0
     25845 WT1      8493     TIP3     H2       HT       0.417000        1.0080           0
     25846 WT1      8494     TIP3     OH2      OT      -0.834000       15.9994           0
     25847 WT1      8494     TIP3     H1       HT       0.417000        1.0080           0
     25848 WT1      8494     TIP3     H2       HT       0.417000        1.0080           0
     25849 WT1      8495     TIP3     OH2      OT      -0.834000       15.9994           0
     25850 WT1      8495     TIP3     H1       HT       0.417000        1.0080           0
     25851 WT1      8495     TIP3     H2       HT       0.417000        1.0080           0
     25852 WT1      8496     TIP3     OH2      OT      -0.834000       15.9994           0
     25853 WT1      8496     TIP3     H1       HT       0.417000        1.0080           0
     25854 WT1      8496     TIP3     H2       HT       0.417000        1.0080           0
     25855 WT1      8497     TIP3     OH2      OT      -0.834000       15.9994           0
     25856 WT1      8497     TIP3     H1       HT       0.417000        1.0080           0
     25857 WT1      8497     TIP3     H2       HT       0.417000        1.0080           0
     25858 WT1      8498     TIP3     OH2      OT      -0.834000       15.9994           0
     25859 WT1      8498     TIP3     H1       HT       0.417000        1.0080           0
     25860 WT1      8498     TIP3     H2       HT       0.417000        1.0080           0
     25861 WT1      8499     TIP3     OH2      OT      -0.834000       15.9994           0
     25862 WT1      8499     TIP3     H1       HT       0.417000        1.0080           0
     25863 WT1      8499     TIP3     H2       HT       0.417000        1.0080           0
     25864 WT1      8501     TIP3     OH2      OT      -0.834000       15.9994           0
     25865 WT1      8501     TIP3     H1       HT       0.417000        1.0080           0
     25866 WT1      8501     TIP3     H2       HT       0.417000        1.0080           0
     25867 WT1      8502     TIP3     OH2      OT      -0.834000       15.9994           0
     25868 WT1      8502     TIP3     H1       HT       0.417000        1.0080           0
     25869 WT1      8502     TIP3     H2       HT       0.417000        1.0080           0
     25870 WT1      8503     TIP3     OH2      OT      -0.834000       15.9994           0
     25871 WT1      8503     TIP3     H1       HT       0.417000        1.0080           0
     25872 WT1      8503     TIP3     H2       HT       0.417000        1.0080           0
     25873 WT1      8504     TIP3     OH2      OT      -0.834000       15.9994           0
     25874 WT1      8504     TIP3     H1       HT       0.417000        1.0080           0
     25875 WT1      8504     TIP3     H2       HT       0.417000        1.0080           0
     25876 WT1      8505     TIP3     OH2      OT      -0.834000       15.9994           0
     25877 WT1      8505     TIP3     H1       HT       0.417000        1.0080           0
     25878 WT1      8505     TIP3     H2       HT       0.417000        1.0080           0
     25879 WT1      8507     TIP3     OH2      OT      -0.834000       15.9994           0
     25880 WT1      8507     TIP3     H1       HT       0.417000        1.0080           0
     25881 WT1      8507     TIP3     H2       HT       0.417000        1.0080           0
     25882 WT1      8508     TIP3     OH2      OT      -0.834000       15.9994           0
     25883 WT1      8508     TIP3     H1       HT       0.417000        1.0080           0
     25884 WT1      8508     TIP3     H2       HT       0.417000        1.0080           0
     25885 WT1      8509     TIP3     OH2      OT      -0.834000       15.9994           0
     25886 WT1      8509     TIP3     H1       HT       0.417000        1.0080           0
     25887 WT1      8509     TIP3     H2       HT       0.417000        1.0080           0
     25888 WT1      8510     TIP3     OH2      OT      -0.834000       15.9994           0
     25889 WT1      8510     TIP3     H1       HT       0.417000        1.0080           0
     25890 WT1      8510     TIP3     H2       HT       0.417000        1.0080           0
     25891 WT1      8511     TIP3     OH2      OT      -0.834000       15.9994           0
     25892 WT1      8511     TIP3     H1       HT       0.417000        1.0080           0
     25893 WT1      8511     TIP3     H2       HT       0.417000        1.0080           0
     25894 WT1      8512     TIP3     OH2      OT      -0.834000       15.9994           0
     25895 WT1      8512     TIP3     H1       HT       0.417000        1.0080           0
     25896 WT1      8512     TIP3     H2       HT       0.417000        1.0080           0
     25897 WT1      8513     TIP3     OH2      OT      -0.834000       15.9994           0
     25898 WT1      8513     TIP3     H1       HT       0.417000        1.0080           0
     25899 WT1      8513     TIP3     H2       HT       0.417000        1.0080           0
     25900 WT1      8514     TIP3     OH2      OT      -0.834000       15.9994           0
     25901 WT1      8514     TIP3     H1       HT       0.417000        1.0080           0
     25902 WT1      8514     TIP3     H2       HT       0.417000        1.0080           0
     25903 WT1      8515     TIP3     OH2      OT      -0.834000       15.9994           0
     25904 WT1      8515     TIP3     H1       HT       0.417000        1.0080           0
     25905 WT1      8515     TIP3     H2       HT       0.417000        1.0080           0
     25906 WT1      8516     TIP3     OH2      OT      -0.834000       15.9994           0
     25907 WT1      8516     TIP3     H1       HT       0.417000        1.0080           0
     25908 WT1      8516     TIP3     H2       HT       0.417000        1.0080           0
     25909 WT1      8517     TIP3     OH2      OT      -0.834000       15.9994           0
     25910 WT1      8517     TIP3     H1       HT       0.417000        1.0080           0
     25911 WT1      8517     TIP3     H2       HT       0.417000        1.0080           0
     25912 WT1      8518     TIP3     OH2      OT      -0.834000       15.9994           0
     25913 WT1      8518     TIP3     H1       HT       0.417000        1.0080           0
     25914 WT1      8518     TIP3     H2       HT       0.417000        1.0080           0
     25915 WT1      8519     TIP3     OH2      OT      -0.834000       15.9994           0
     25916 WT1      8519     TIP3     H1       HT       0.417000        1.0080           0
     25917 WT1      8519     TIP3     H2       HT       0.417000        1.0080           0
     25918 WT1      8520     TIP3     OH2      OT      -0.834000       15.9994           0
     25919 WT1      8520     TIP3     H1       HT       0.417000        1.0080           0
     25920 WT1      8520     TIP3     H2       HT       0.417000        1.0080           0
     25921 WT1      8521     TIP3     OH2      OT      -0.834000       15.9994           0
     25922 WT1      8521     TIP3     H1       HT       0.417000        1.0080           0
     25923 WT1      8521     TIP3     H2       HT       0.417000        1.0080           0
     25924 WT1      8522     TIP3     OH2      OT      -0.834000       15.9994           0
     25925 WT1      8522     TIP3     H1       HT       0.417000        1.0080           0
     25926 WT1      8522     TIP3     H2       HT       0.417000        1.0080           0
     25927 WT1      8523     TIP3     OH2      OT      -0.834000       15.9994           0
     25928 WT1      8523     TIP3     H1       HT       0.417000        1.0080           0
     25929 WT1      8523     TIP3     H2       HT       0.417000        1.0080           0
     25930 WT1      8524     TIP3     OH2      OT      -0.834000       15.9994           0
     25931 WT1      8524     TIP3     H1       HT       0.417000        1.0080           0
     25932 WT1      8524     TIP3     H2       HT       0.417000        1.0080           0
     25933 WT1      8525     TIP3     OH2      OT      -0.834000       15.9994           0
     25934 WT1      8525     TIP3     H1       HT       0.417000        1.0080           0
     25935 WT1      8525     TIP3     H2       HT       0.417000        1.0080           0
     25936 WT1      8526     TIP3     OH2      OT      -0.834000       15.9994           0
     25937 WT1      8526     TIP3     H1       HT       0.417000        1.0080           0
     25938 WT1      8526     TIP3     H2       HT       0.417000        1.0080           0
     25939 WT1      8527     TIP3     OH2      OT      -0.834000       15.9994           0
     25940 WT1      8527     TIP3     H1       HT       0.417000        1.0080           0
     25941 WT1      8527     TIP3     H2       HT       0.417000        1.0080           0
     25942 WT1      8528     TIP3     OH2      OT      -0.834000       15.9994           0
     25943 WT1      8528     TIP3     H1       HT       0.417000        1.0080           0
     25944 WT1      8528     TIP3     H2       HT       0.417000        1.0080           0
     25945 WT1      8529     TIP3     OH2      OT      -0.834000       15.9994           0
     25946 WT1      8529     TIP3     H1       HT       0.417000        1.0080           0
     25947 WT1      8529     TIP3     H2       HT       0.417000        1.0080           0
     25948 WT1      8530     TIP3     OH2      OT      -0.834000       15.9994           0
     25949 WT1      8530     TIP3     H1       HT       0.417000        1.0080           0
     25950 WT1      8530     TIP3     H2       HT       0.417000        1.0080           0
     25951 WT1      8531     TIP3     OH2      OT      -0.834000       15.9994           0
     25952 WT1      8531     TIP3     H1       HT       0.417000        1.0080           0
     25953 WT1      8531     TIP3     H2       HT       0.417000        1.0080           0
     25954 WT1      8532     TIP3     OH2      OT      -0.834000       15.9994           0
     25955 WT1      8532     TIP3     H1       HT       0.417000        1.0080           0
     25956 WT1      8532     TIP3     H2       HT       0.417000        1.0080           0
     25957 WT1      8533     TIP3     OH2      OT      -0.834000       15.9994           0
     25958 WT1      8533     TIP3     H1       HT       0.417000        1.0080           0
     25959 WT1      8533     TIP3     H2       HT       0.417000        1.0080           0
     25960 WT1      8534     TIP3     OH2      OT      -0.834000       15.9994           0
     25961 WT1      8534     TIP3     H1       HT       0.417000        1.0080           0
     25962 WT1      8534     TIP3     H2       HT       0.417000        1.0080           0
     25963 WT1      8535     TIP3     OH2      OT      -0.834000       15.9994           0
     25964 WT1      8535     TIP3     H1       HT       0.417000        1.0080           0
     25965 WT1      8535     TIP3     H2       HT       0.417000        1.0080           0
     25966 WT1      8536     TIP3     OH2      OT      -0.834000       15.9994           0
     25967 WT1      8536     TIP3     H1       HT       0.417000        1.0080           0
     25968 WT1      8536     TIP3     H2       HT       0.417000        1.0080           0
     25969 WT1      8538     TIP3     OH2      OT      -0.834000       15.9994           0
     25970 WT1      8538     TIP3     H1       HT       0.417000        1.0080           0
     25971 WT1      8538     TIP3     H2       HT       0.417000        1.0080           0
     25972 WT1      8539     TIP3     OH2      OT      -0.834000       15.9994           0
     25973 WT1      8539     TIP3     H1       HT       0.417000        1.0080           0
     25974 WT1      8539     TIP3     H2       HT       0.417000        1.0080           0
     25975 WT1      8540     TIP3     OH2      OT      -0.834000       15.9994           0
     25976 WT1      8540     TIP3     H1       HT       0.417000        1.0080           0
     25977 WT1      8540     TIP3     H2       HT       0.417000        1.0080           0
     25978 WT1      8541     TIP3     OH2      OT      -0.834000       15.9994           0
     25979 WT1      8541     TIP3     H1       HT       0.417000        1.0080           0
     25980 WT1      8541     TIP3     H2       HT       0.417000        1.0080           0
     25981 WT1      8542     TIP3     OH2      OT      -0.834000       15.9994           0
     25982 WT1      8542     TIP3     H1       HT       0.417000        1.0080           0
     25983 WT1      8542     TIP3     H2       HT       0.417000        1.0080           0
     25984 WT1      8543     TIP3     OH2      OT      -0.834000       15.9994           0
     25985 WT1      8543     TIP3     H1       HT       0.417000        1.0080           0
     25986 WT1      8543     TIP3     H2       HT       0.417000        1.0080           0
     25987 WT1      8544     TIP3     OH2      OT      -0.834000       15.9994           0
     25988 WT1      8544     TIP3     H1       HT       0.417000        1.0080           0
     25989 WT1      8544     TIP3     H2       HT       0.417000        1.0080           0
     25990 WT1      8545     TIP3     OH2      OT      -0.834000       15.9994           0
     25991 WT1      8545     TIP3     H1       HT       0.417000        1.0080           0
     25992 WT1      8545     TIP3     H2       HT       0.417000        1.0080           0
     25993 WT1      8546     TIP3     OH2      OT      -0.834000       15.9994           0
     25994 WT1      8546     TIP3     H1       HT       0.417000        1.0080           0
     25995 WT1      8546     TIP3     H2       HT       0.417000        1.0080           0
     25996 WT1      8547     TIP3     OH2      OT      -0.834000       15.9994           0
     25997 WT1      8547     TIP3     H1       HT       0.417000        1.0080           0
     25998 WT1      8547     TIP3     H2       HT       0.417000        1.0080           0
     25999 WT1      8548     TIP3     OH2      OT      -0.834000       15.9994           0
     26000 WT1      8548     TIP3     H1       HT       0.417000        1.0080           0
     26001 WT1      8548     TIP3     H2       HT       0.417000        1.0080           0
     26002 WT1      8549     TIP3     OH2      OT      -0.834000       15.9994           0
     26003 WT1      8549     TIP3     H1       HT       0.417000        1.0080           0
     26004 WT1      8549     TIP3     H2       HT       0.417000        1.0080           0
     26005 WT1      8550     TIP3     OH2      OT      -0.834000       15.9994           0
     26006 WT1      8550     TIP3     H1       HT       0.417000        1.0080           0
     26007 WT1      8550     TIP3     H2       HT       0.417000        1.0080           0
     26008 WT1      8551     TIP3     OH2      OT      -0.834000       15.9994           0
     26009 WT1      8551     TIP3     H1       HT       0.417000        1.0080           0
     26010 WT1      8551     TIP3     H2       HT       0.417000        1.0080           0
     26011 WT1      8552     TIP3     OH2      OT      -0.834000       15.9994           0
     26012 WT1      8552     TIP3     H1       HT       0.417000        1.0080           0
     26013 WT1      8552     TIP3     H2       HT       0.417000        1.0080           0
     26014 WT1      8553     TIP3     OH2      OT      -0.834000       15.9994           0
     26015 WT1      8553     TIP3     H1       HT       0.417000        1.0080           0
     26016 WT1      8553     TIP3     H2       HT       0.417000        1.0080           0
     26017 WT1      8554     TIP3     OH2      OT      -0.834000       15.9994           0
     26018 WT1      8554     TIP3     H1       HT       0.417000        1.0080           0
     26019 WT1      8554     TIP3     H2       HT       0.417000        1.0080           0
     26020 WT1      8555     TIP3     OH2      OT      -0.834000       15.9994           0
     26021 WT1      8555     TIP3     H1       HT       0.417000        1.0080           0
     26022 WT1      8555     TIP3     H2       HT       0.417000        1.0080           0
     26023 WT1      8556     TIP3     OH2      OT      -0.834000       15.9994           0
     26024 WT1      8556     TIP3     H1       HT       0.417000        1.0080           0
     26025 WT1      8556     TIP3     H2       HT       0.417000        1.0080           0
     26026 WT1      8557     TIP3     OH2      OT      -0.834000       15.9994           0
     26027 WT1      8557     TIP3     H1       HT       0.417000        1.0080           0
     26028 WT1      8557     TIP3     H2       HT       0.417000        1.0080           0
     26029 WT1      8558     TIP3     OH2      OT      -0.834000       15.9994           0
     26030 WT1      8558     TIP3     H1       HT       0.417000        1.0080           0
     26031 WT1      8558     TIP3     H2       HT       0.417000        1.0080           0
     26032 WT1      8559     TIP3     OH2      OT      -0.834000       15.9994           0
     26033 WT1      8559     TIP3     H1       HT       0.417000        1.0080           0
     26034 WT1      8559     TIP3     H2       HT       0.417000        1.0080           0
     26035 WT1      8560     TIP3     OH2      OT      -0.834000       15.9994           0
     26036 WT1      8560     TIP3     H1       HT       0.417000        1.0080           0
     26037 WT1      8560     TIP3     H2       HT       0.417000        1.0080           0
     26038 WT1      8561     TIP3     OH2      OT      -0.834000       15.9994           0
     26039 WT1      8561     TIP3     H1       HT       0.417000        1.0080           0
     26040 WT1      8561     TIP3     H2       HT       0.417000        1.0080           0
     26041 WT1      8562     TIP3     OH2      OT      -0.834000       15.9994           0
     26042 WT1      8562     TIP3     H1       HT       0.417000        1.0080           0
     26043 WT1      8562     TIP3     H2       HT       0.417000        1.0080           0
     26044 WT1      8563     TIP3     OH2      OT      -0.834000       15.9994           0
     26045 WT1      8563     TIP3     H1       HT       0.417000        1.0080           0
     26046 WT1      8563     TIP3     H2       HT       0.417000        1.0080           0
     26047 WT1      8564     TIP3     OH2      OT      -0.834000       15.9994           0
     26048 WT1      8564     TIP3     H1       HT       0.417000        1.0080           0
     26049 WT1      8564     TIP3     H2       HT       0.417000        1.0080           0
     26050 WT1      8565     TIP3     OH2      OT      -0.834000       15.9994           0
     26051 WT1      8565     TIP3     H1       HT       0.417000        1.0080           0
     26052 WT1      8565     TIP3     H2       HT       0.417000        1.0080           0
     26053 WT1      8566     TIP3     OH2      OT      -0.834000       15.9994           0
     26054 WT1      8566     TIP3     H1       HT       0.417000        1.0080           0
     26055 WT1      8566     TIP3     H2       HT       0.417000        1.0080           0
     26056 WT1      8567     TIP3     OH2      OT      -0.834000       15.9994           0
     26057 WT1      8567     TIP3     H1       HT       0.417000        1.0080           0
     26058 WT1      8567     TIP3     H2       HT       0.417000        1.0080           0
     26059 WT1      8568     TIP3     OH2      OT      -0.834000       15.9994           0
     26060 WT1      8568     TIP3     H1       HT       0.417000        1.0080           0
     26061 WT1      8568     TIP3     H2       HT       0.417000        1.0080           0
     26062 WT1      8569     TIP3     OH2      OT      -0.834000       15.9994           0
     26063 WT1      8569     TIP3     H1       HT       0.417000        1.0080           0
     26064 WT1      8569     TIP3     H2       HT       0.417000        1.0080           0
     26065 WT1      8571     TIP3     OH2      OT      -0.834000       15.9994           0
     26066 WT1      8571     TIP3     H1       HT       0.417000        1.0080           0
     26067 WT1      8571     TIP3     H2       HT       0.417000        1.0080           0
     26068 WT1      8572     TIP3     OH2      OT      -0.834000       15.9994           0
     26069 WT1      8572     TIP3     H1       HT       0.417000        1.0080           0
     26070 WT1      8572     TIP3     H2       HT       0.417000        1.0080           0
     26071 WT1      8573     TIP3     OH2      OT      -0.834000       15.9994           0
     26072 WT1      8573     TIP3     H1       HT       0.417000        1.0080           0
     26073 WT1      8573     TIP3     H2       HT       0.417000        1.0080           0
     26074 WT1      8574     TIP3     OH2      OT      -0.834000       15.9994           0
     26075 WT1      8574     TIP3     H1       HT       0.417000        1.0080           0
     26076 WT1      8574     TIP3     H2       HT       0.417000        1.0080           0
     26077 WT1      8575     TIP3     OH2      OT      -0.834000       15.9994           0
     26078 WT1      8575     TIP3     H1       HT       0.417000        1.0080           0
     26079 WT1      8575     TIP3     H2       HT       0.417000        1.0080           0
     26080 WT1      8576     TIP3     OH2      OT      -0.834000       15.9994           0
     26081 WT1      8576     TIP3     H1       HT       0.417000        1.0080           0
     26082 WT1      8576     TIP3     H2       HT       0.417000        1.0080           0
     26083 WT1      8577     TIP3     OH2      OT      -0.834000       15.9994           0
     26084 WT1      8577     TIP3     H1       HT       0.417000        1.0080           0
     26085 WT1      8577     TIP3     H2       HT       0.417000        1.0080           0
     26086 WT1      8578     TIP3     OH2      OT      -0.834000       15.9994           0
     26087 WT1      8578     TIP3     H1       HT       0.417000        1.0080           0
     26088 WT1      8578     TIP3     H2       HT       0.417000        1.0080           0
     26089 WT1      8579     TIP3     OH2      OT      -0.834000       15.9994           0
     26090 WT1      8579     TIP3     H1       HT       0.417000        1.0080           0
     26091 WT1      8579     TIP3     H2       HT       0.417000        1.0080           0
     26092 WT1      8580     TIP3     OH2      OT      -0.834000       15.9994           0
     26093 WT1      8580     TIP3     H1       HT       0.417000        1.0080           0
     26094 WT1      8580     TIP3     H2       HT       0.417000        1.0080           0
     26095 WT1      8581     TIP3     OH2      OT      -0.834000       15.9994           0
     26096 WT1      8581     TIP3     H1       HT       0.417000        1.0080           0
     26097 WT1      8581     TIP3     H2       HT       0.417000        1.0080           0
     26098 WT1      8582     TIP3     OH2      OT      -0.834000       15.9994           0
     26099 WT1      8582     TIP3     H1       HT       0.417000        1.0080           0
     26100 WT1      8582     TIP3     H2       HT       0.417000        1.0080           0
     26101 WT1      8583     TIP3     OH2      OT      -0.834000       15.9994           0
     26102 WT1      8583     TIP3     H1       HT       0.417000        1.0080           0
     26103 WT1      8583     TIP3     H2       HT       0.417000        1.0080           0
     26104 WT1      8584     TIP3     OH2      OT      -0.834000       15.9994           0
     26105 WT1      8584     TIP3     H1       HT       0.417000        1.0080           0
     26106 WT1      8584     TIP3     H2       HT       0.417000        1.0080           0
     26107 WT1      8585     TIP3     OH2      OT      -0.834000       15.9994           0
     26108 WT1      8585     TIP3     H1       HT       0.417000        1.0080           0
     26109 WT1      8585     TIP3     H2       HT       0.417000        1.0080           0
     26110 WT1      8586     TIP3     OH2      OT      -0.834000       15.9994           0
     26111 WT1      8586     TIP3     H1       HT       0.417000        1.0080           0
     26112 WT1      8586     TIP3     H2       HT       0.417000        1.0080           0
     26113 WT1      8587     TIP3     OH2      OT      -0.834000       15.9994           0
     26114 WT1      8587     TIP3     H1       HT       0.417000        1.0080           0
     26115 WT1      8587     TIP3     H2       HT       0.417000        1.0080           0
     26116 WT1      8589     TIP3     OH2      OT      -0.834000       15.9994           0
     26117 WT1      8589     TIP3     H1       HT       0.417000        1.0080           0
     26118 WT1      8589     TIP3     H2       HT       0.417000        1.0080           0
     26119 WT1      8590     TIP3     OH2      OT      -0.834000       15.9994           0
     26120 WT1      8590     TIP3     H1       HT       0.417000        1.0080           0
     26121 WT1      8590     TIP3     H2       HT       0.417000        1.0080           0
     26122 WT1      8591     TIP3     OH2      OT      -0.834000       15.9994           0
     26123 WT1      8591     TIP3     H1       HT       0.417000        1.0080           0
     26124 WT1      8591     TIP3     H2       HT       0.417000        1.0080           0
     26125 WT1      8592     TIP3     OH2      OT      -0.834000       15.9994           0
     26126 WT1      8592     TIP3     H1       HT       0.417000        1.0080           0
     26127 WT1      8592     TIP3     H2       HT       0.417000        1.0080           0
     26128 WT1      8593     TIP3     OH2      OT      -0.834000       15.9994           0
     26129 WT1      8593     TIP3     H1       HT       0.417000        1.0080           0
     26130 WT1      8593     TIP3     H2       HT       0.417000        1.0080           0
     26131 WT1      8594     TIP3     OH2      OT      -0.834000       15.9994           0
     26132 WT1      8594     TIP3     H1       HT       0.417000        1.0080           0
     26133 WT1      8594     TIP3     H2       HT       0.417000        1.0080           0
     26134 WT1      8595     TIP3     OH2      OT      -0.834000       15.9994           0
     26135 WT1      8595     TIP3     H1       HT       0.417000        1.0080           0
     26136 WT1      8595     TIP3     H2       HT       0.417000        1.0080           0
     26137 WT1      8596     TIP3     OH2      OT      -0.834000       15.9994           0
     26138 WT1      8596     TIP3     H1       HT       0.417000        1.0080           0
     26139 WT1      8596     TIP3     H2       HT       0.417000        1.0080           0
     26140 WT1      8597     TIP3     OH2      OT      -0.834000       15.9994           0
     26141 WT1      8597     TIP3     H1       HT       0.417000        1.0080           0
     26142 WT1      8597     TIP3     H2       HT       0.417000        1.0080           0
     26143 WT1      8598     TIP3     OH2      OT      -0.834000       15.9994           0
     26144 WT1      8598     TIP3     H1       HT       0.417000        1.0080           0
     26145 WT1      8598     TIP3     H2       HT       0.417000        1.0080           0
     26146 WT1      8599     TIP3     OH2      OT      -0.834000       15.9994           0
     26147 WT1      8599     TIP3     H1       HT       0.417000        1.0080           0
     26148 WT1      8599     TIP3     H2       HT       0.417000        1.0080           0
     26149 WT1      8600     TIP3     OH2      OT      -0.834000       15.9994           0
     26150 WT1      8600     TIP3     H1       HT       0.417000        1.0080           0
     26151 WT1      8600     TIP3     H2       HT       0.417000        1.0080           0
     26152 WT1      8601     TIP3     OH2      OT      -0.834000       15.9994           0
     26153 WT1      8601     TIP3     H1       HT       0.417000        1.0080           0
     26154 WT1      8601     TIP3     H2       HT       0.417000        1.0080           0
     26155 WT1      8602     TIP3     OH2      OT      -0.834000       15.9994           0
     26156 WT1      8602     TIP3     H1       HT       0.417000        1.0080           0
     26157 WT1      8602     TIP3     H2       HT       0.417000        1.0080           0
     26158 WT1      8603     TIP3     OH2      OT      -0.834000       15.9994           0
     26159 WT1      8603     TIP3     H1       HT       0.417000        1.0080           0
     26160 WT1      8603     TIP3     H2       HT       0.417000        1.0080           0
     26161 WT1      8604     TIP3     OH2      OT      -0.834000       15.9994           0
     26162 WT1      8604     TIP3     H1       HT       0.417000        1.0080           0
     26163 WT1      8604     TIP3     H2       HT       0.417000        1.0080           0
     26164 WT1      8605     TIP3     OH2      OT      -0.834000       15.9994           0
     26165 WT1      8605     TIP3     H1       HT       0.417000        1.0080           0
     26166 WT1      8605     TIP3     H2       HT       0.417000        1.0080           0
     26167 WT1      8606     TIP3     OH2      OT      -0.834000       15.9994           0
     26168 WT1      8606     TIP3     H1       HT       0.417000        1.0080           0
     26169 WT1      8606     TIP3     H2       HT       0.417000        1.0080           0
     26170 WT1      8607     TIP3     OH2      OT      -0.834000       15.9994           0
     26171 WT1      8607     TIP3     H1       HT       0.417000        1.0080           0
     26172 WT1      8607     TIP3     H2       HT       0.417000        1.0080           0
     26173 WT1      8608     TIP3     OH2      OT      -0.834000       15.9994           0
     26174 WT1      8608     TIP3     H1       HT       0.417000        1.0080           0
     26175 WT1      8608     TIP3     H2       HT       0.417000        1.0080           0
     26176 WT1      8609     TIP3     OH2      OT      -0.834000       15.9994           0
     26177 WT1      8609     TIP3     H1       HT       0.417000        1.0080           0
     26178 WT1      8609     TIP3     H2       HT       0.417000        1.0080           0
     26179 WT1      8610     TIP3     OH2      OT      -0.834000       15.9994           0
     26180 WT1      8610     TIP3     H1       HT       0.417000        1.0080           0
     26181 WT1      8610     TIP3     H2       HT       0.417000        1.0080           0
     26182 WT1      8611     TIP3     OH2      OT      -0.834000       15.9994           0
     26183 WT1      8611     TIP3     H1       HT       0.417000        1.0080           0
     26184 WT1      8611     TIP3     H2       HT       0.417000        1.0080           0
     26185 WT1      8612     TIP3     OH2      OT      -0.834000       15.9994           0
     26186 WT1      8612     TIP3     H1       HT       0.417000        1.0080           0
     26187 WT1      8612     TIP3     H2       HT       0.417000        1.0080           0
     26188 WT1      8613     TIP3     OH2      OT      -0.834000       15.9994           0
     26189 WT1      8613     TIP3     H1       HT       0.417000        1.0080           0
     26190 WT1      8613     TIP3     H2       HT       0.417000        1.0080           0
     26191 WT1      8614     TIP3     OH2      OT      -0.834000       15.9994           0
     26192 WT1      8614     TIP3     H1       HT       0.417000        1.0080           0
     26193 WT1      8614     TIP3     H2       HT       0.417000        1.0080           0
     26194 WT1      8615     TIP3     OH2      OT      -0.834000       15.9994           0
     26195 WT1      8615     TIP3     H1       HT       0.417000        1.0080           0
     26196 WT1      8615     TIP3     H2       HT       0.417000        1.0080           0
     26197 WT1      8616     TIP3     OH2      OT      -0.834000       15.9994           0
     26198 WT1      8616     TIP3     H1       HT       0.417000        1.0080           0
     26199 WT1      8616     TIP3     H2       HT       0.417000        1.0080           0
     26200 WT1      8617     TIP3     OH2      OT      -0.834000       15.9994           0
     26201 WT1      8617     TIP3     H1       HT       0.417000        1.0080           0
     26202 WT1      8617     TIP3     H2       HT       0.417000        1.0080           0
     26203 WT1      8618     TIP3     OH2      OT      -0.834000       15.9994           0
     26204 WT1      8618     TIP3     H1       HT       0.417000        1.0080           0
     26205 WT1      8618     TIP3     H2       HT       0.417000        1.0080           0
     26206 WT1      8619     TIP3     OH2      OT      -0.834000       15.9994           0
     26207 WT1      8619     TIP3     H1       HT       0.417000        1.0080           0
     26208 WT1      8619     TIP3     H2       HT       0.417000        1.0080           0
     26209 WT1      8620     TIP3     OH2      OT      -0.834000       15.9994           0
     26210 WT1      8620     TIP3     H1       HT       0.417000        1.0080           0
     26211 WT1      8620     TIP3     H2       HT       0.417000        1.0080           0
     26212 WT1      8621     TIP3     OH2      OT      -0.834000       15.9994           0
     26213 WT1      8621     TIP3     H1       HT       0.417000        1.0080           0
     26214 WT1      8621     TIP3     H2       HT       0.417000        1.0080           0
     26215 WT1      8622     TIP3     OH2      OT      -0.834000       15.9994           0
     26216 WT1      8622     TIP3     H1       HT       0.417000        1.0080           0
     26217 WT1      8622     TIP3     H2       HT       0.417000        1.0080           0
     26218 WT1      8623     TIP3     OH2      OT      -0.834000       15.9994           0
     26219 WT1      8623     TIP3     H1       HT       0.417000        1.0080           0
     26220 WT1      8623     TIP3     H2       HT       0.417000        1.0080           0
     26221 WT1      8624     TIP3     OH2      OT      -0.834000       15.9994           0
     26222 WT1      8624     TIP3     H1       HT       0.417000        1.0080           0
     26223 WT1      8624     TIP3     H2       HT       0.417000        1.0080           0
     26224 WT1      8625     TIP3     OH2      OT      -0.834000       15.9994           0
     26225 WT1      8625     TIP3     H1       HT       0.417000        1.0080           0
     26226 WT1      8625     TIP3     H2       HT       0.417000        1.0080           0
     26227 WT1      8627     TIP3     OH2      OT      -0.834000       15.9994           0
     26228 WT1      8627     TIP3     H1       HT       0.417000        1.0080           0
     26229 WT1      8627     TIP3     H2       HT       0.417000        1.0080           0
     26230 WT1      8628     TIP3     OH2      OT      -0.834000       15.9994           0
     26231 WT1      8628     TIP3     H1       HT       0.417000        1.0080           0
     26232 WT1      8628     TIP3     H2       HT       0.417000        1.0080           0
     26233 WT1      8629     TIP3     OH2      OT      -0.834000       15.9994           0
     26234 WT1      8629     TIP3     H1       HT       0.417000        1.0080           0
     26235 WT1      8629     TIP3     H2       HT       0.417000        1.0080           0
     26236 WT1      8630     TIP3     OH2      OT      -0.834000       15.9994           0
     26237 WT1      8630     TIP3     H1       HT       0.417000        1.0080           0
     26238 WT1      8630     TIP3     H2       HT       0.417000        1.0080           0
     26239 WT1      8631     TIP3     OH2      OT      -0.834000       15.9994           0
     26240 WT1      8631     TIP3     H1       HT       0.417000        1.0080           0
     26241 WT1      8631     TIP3     H2       HT       0.417000        1.0080           0
     26242 WT1      8633     TIP3     OH2      OT      -0.834000       15.9994           0
     26243 WT1      8633     TIP3     H1       HT       0.417000        1.0080           0
     26244 WT1      8633     TIP3     H2       HT       0.417000        1.0080           0
     26245 WT1      8634     TIP3     OH2      OT      -0.834000       15.9994           0
     26246 WT1      8634     TIP3     H1       HT       0.417000        1.0080           0
     26247 WT1      8634     TIP3     H2       HT       0.417000        1.0080           0
     26248 WT1      8635     TIP3     OH2      OT      -0.834000       15.9994           0
     26249 WT1      8635     TIP3     H1       HT       0.417000        1.0080           0
     26250 WT1      8635     TIP3     H2       HT       0.417000        1.0080           0
     26251 WT1      8636     TIP3     OH2      OT      -0.834000       15.9994           0
     26252 WT1      8636     TIP3     H1       HT       0.417000        1.0080           0
     26253 WT1      8636     TIP3     H2       HT       0.417000        1.0080           0
     26254 WT1      8637     TIP3     OH2      OT      -0.834000       15.9994           0
     26255 WT1      8637     TIP3     H1       HT       0.417000        1.0080           0
     26256 WT1      8637     TIP3     H2       HT       0.417000        1.0080           0
     26257 WT1      8638     TIP3     OH2      OT      -0.834000       15.9994           0
     26258 WT1      8638     TIP3     H1       HT       0.417000        1.0080           0
     26259 WT1      8638     TIP3     H2       HT       0.417000        1.0080           0
     26260 WT1      8639     TIP3     OH2      OT      -0.834000       15.9994           0
     26261 WT1      8639     TIP3     H1       HT       0.417000        1.0080           0
     26262 WT1      8639     TIP3     H2       HT       0.417000        1.0080           0
     26263 WT1      8640     TIP3     OH2      OT      -0.834000       15.9994           0
     26264 WT1      8640     TIP3     H1       HT       0.417000        1.0080           0
     26265 WT1      8640     TIP3     H2       HT       0.417000        1.0080           0
     26266 WT1      8641     TIP3     OH2      OT      -0.834000       15.9994           0
     26267 WT1      8641     TIP3     H1       HT       0.417000        1.0080           0
     26268 WT1      8641     TIP3     H2       HT       0.417000        1.0080           0
     26269 WT1      8642     TIP3     OH2      OT      -0.834000       15.9994           0
     26270 WT1      8642     TIP3     H1       HT       0.417000        1.0080           0
     26271 WT1      8642     TIP3     H2       HT       0.417000        1.0080           0
     26272 WT1      8643     TIP3     OH2      OT      -0.834000       15.9994           0
     26273 WT1      8643     TIP3     H1       HT       0.417000        1.0080           0
     26274 WT1      8643     TIP3     H2       HT       0.417000        1.0080           0
     26275 WT1      8644     TIP3     OH2      OT      -0.834000       15.9994           0
     26276 WT1      8644     TIP3     H1       HT       0.417000        1.0080           0
     26277 WT1      8644     TIP3     H2       HT       0.417000        1.0080           0
     26278 WT1      8645     TIP3     OH2      OT      -0.834000       15.9994           0
     26279 WT1      8645     TIP3     H1       HT       0.417000        1.0080           0
     26280 WT1      8645     TIP3     H2       HT       0.417000        1.0080           0
     26281 WT1      8646     TIP3     OH2      OT      -0.834000       15.9994           0
     26282 WT1      8646     TIP3     H1       HT       0.417000        1.0080           0
     26283 WT1      8646     TIP3     H2       HT       0.417000        1.0080           0
     26284 WT1      8647     TIP3     OH2      OT      -0.834000       15.9994           0
     26285 WT1      8647     TIP3     H1       HT       0.417000        1.0080           0
     26286 WT1      8647     TIP3     H2       HT       0.417000        1.0080           0
     26287 WT1      8648     TIP3     OH2      OT      -0.834000       15.9994           0
     26288 WT1      8648     TIP3     H1       HT       0.417000        1.0080           0
     26289 WT1      8648     TIP3     H2       HT       0.417000        1.0080           0
     26290 WT1      8649     TIP3     OH2      OT      -0.834000       15.9994           0
     26291 WT1      8649     TIP3     H1       HT       0.417000        1.0080           0
     26292 WT1      8649     TIP3     H2       HT       0.417000        1.0080           0
     26293 WT1      8650     TIP3     OH2      OT      -0.834000       15.9994           0
     26294 WT1      8650     TIP3     H1       HT       0.417000        1.0080           0
     26295 WT1      8650     TIP3     H2       HT       0.417000        1.0080           0
     26296 WT1      8651     TIP3     OH2      OT      -0.834000       15.9994           0
     26297 WT1      8651     TIP3     H1       HT       0.417000        1.0080           0
     26298 WT1      8651     TIP3     H2       HT       0.417000        1.0080           0
     26299 WT1      8652     TIP3     OH2      OT      -0.834000       15.9994           0
     26300 WT1      8652     TIP3     H1       HT       0.417000        1.0080           0
     26301 WT1      8652     TIP3     H2       HT       0.417000        1.0080           0
     26302 WT1      8653     TIP3     OH2      OT      -0.834000       15.9994           0
     26303 WT1      8653     TIP3     H1       HT       0.417000        1.0080           0
     26304 WT1      8653     TIP3     H2       HT       0.417000        1.0080           0
     26305 WT1      8654     TIP3     OH2      OT      -0.834000       15.9994           0
     26306 WT1      8654     TIP3     H1       HT       0.417000        1.0080           0
     26307 WT1      8654     TIP3     H2       HT       0.417000        1.0080           0
     26308 WT1      8655     TIP3     OH2      OT      -0.834000       15.9994           0
     26309 WT1      8655     TIP3     H1       HT       0.417000        1.0080           0
     26310 WT1      8655     TIP3     H2       HT       0.417000        1.0080           0
     26311 WT1      8656     TIP3     OH2      OT      -0.834000       15.9994           0
     26312 WT1      8656     TIP3     H1       HT       0.417000        1.0080           0
     26313 WT1      8656     TIP3     H2       HT       0.417000        1.0080           0
     26314 WT1      8657     TIP3     OH2      OT      -0.834000       15.9994           0
     26315 WT1      8657     TIP3     H1       HT       0.417000        1.0080           0
     26316 WT1      8657     TIP3     H2       HT       0.417000        1.0080           0
     26317 WT1      8658     TIP3     OH2      OT      -0.834000       15.9994           0
     26318 WT1      8658     TIP3     H1       HT       0.417000        1.0080           0
     26319 WT1      8658     TIP3     H2       HT       0.417000        1.0080           0
     26320 WT1      8659     TIP3     OH2      OT      -0.834000       15.9994           0
     26321 WT1      8659     TIP3     H1       HT       0.417000        1.0080           0
     26322 WT1      8659     TIP3     H2       HT       0.417000        1.0080           0
     26323 WT1      8660     TIP3     OH2      OT      -0.834000       15.9994           0
     26324 WT1      8660     TIP3     H1       HT       0.417000        1.0080           0
     26325 WT1      8660     TIP3     H2       HT       0.417000        1.0080           0
     26326 WT1      8662     TIP3     OH2      OT      -0.834000       15.9994           0
     26327 WT1      8662     TIP3     H1       HT       0.417000        1.0080           0
     26328 WT1      8662     TIP3     H2       HT       0.417000        1.0080           0
     26329 WT1      8663     TIP3     OH2      OT      -0.834000       15.9994           0
     26330 WT1      8663     TIP3     H1       HT       0.417000        1.0080           0
     26331 WT1      8663     TIP3     H2       HT       0.417000        1.0080           0
     26332 WT1      8664     TIP3     OH2      OT      -0.834000       15.9994           0
     26333 WT1      8664     TIP3     H1       HT       0.417000        1.0080           0
     26334 WT1      8664     TIP3     H2       HT       0.417000        1.0080           0
     26335 WT1      8665     TIP3     OH2      OT      -0.834000       15.9994           0
     26336 WT1      8665     TIP3     H1       HT       0.417000        1.0080           0
     26337 WT1      8665     TIP3     H2       HT       0.417000        1.0080           0
     26338 WT1      8666     TIP3     OH2      OT      -0.834000       15.9994           0
     26339 WT1      8666     TIP3     H1       HT       0.417000        1.0080           0
     26340 WT1      8666     TIP3     H2       HT       0.417000        1.0080           0
     26341 WT1      8667     TIP3     OH2      OT      -0.834000       15.9994           0
     26342 WT1      8667     TIP3     H1       HT       0.417000        1.0080           0
     26343 WT1      8667     TIP3     H2       HT       0.417000        1.0080           0
     26344 WT1      8668     TIP3     OH2      OT      -0.834000       15.9994           0
     26345 WT1      8668     TIP3     H1       HT       0.417000        1.0080           0
     26346 WT1      8668     TIP3     H2       HT       0.417000        1.0080           0
     26347 WT1      8669     TIP3     OH2      OT      -0.834000       15.9994           0
     26348 WT1      8669     TIP3     H1       HT       0.417000        1.0080           0
     26349 WT1      8669     TIP3     H2       HT       0.417000        1.0080           0
     26350 WT1      8670     TIP3     OH2      OT      -0.834000       15.9994           0
     26351 WT1      8670     TIP3     H1       HT       0.417000        1.0080           0
     26352 WT1      8670     TIP3     H2       HT       0.417000        1.0080           0
     26353 WT1      8671     TIP3     OH2      OT      -0.834000       15.9994           0
     26354 WT1      8671     TIP3     H1       HT       0.417000        1.0080           0
     26355 WT1      8671     TIP3     H2       HT       0.417000        1.0080           0
     26356 WT1      8672     TIP3     OH2      OT      -0.834000       15.9994           0
     26357 WT1      8672     TIP3     H1       HT       0.417000        1.0080           0
     26358 WT1      8672     TIP3     H2       HT       0.417000        1.0080           0
     26359 WT1      8673     TIP3     OH2      OT      -0.834000       15.9994           0
     26360 WT1      8673     TIP3     H1       HT       0.417000        1.0080           0
     26361 WT1      8673     TIP3     H2       HT       0.417000        1.0080           0
     26362 WT1      8674     TIP3     OH2      OT      -0.834000       15.9994           0
     26363 WT1      8674     TIP3     H1       HT       0.417000        1.0080           0
     26364 WT1      8674     TIP3     H2       HT       0.417000        1.0080           0
     26365 WT1      8675     TIP3     OH2      OT      -0.834000       15.9994           0
     26366 WT1      8675     TIP3     H1       HT       0.417000        1.0080           0
     26367 WT1      8675     TIP3     H2       HT       0.417000        1.0080           0
     26368 WT1      8676     TIP3     OH2      OT      -0.834000       15.9994           0
     26369 WT1      8676     TIP3     H1       HT       0.417000        1.0080           0
     26370 WT1      8676     TIP3     H2       HT       0.417000        1.0080           0
     26371 WT1      8677     TIP3     OH2      OT      -0.834000       15.9994           0
     26372 WT1      8677     TIP3     H1       HT       0.417000        1.0080           0
     26373 WT1      8677     TIP3     H2       HT       0.417000        1.0080           0
     26374 WT1      8678     TIP3     OH2      OT      -0.834000       15.9994           0
     26375 WT1      8678     TIP3     H1       HT       0.417000        1.0080           0
     26376 WT1      8678     TIP3     H2       HT       0.417000        1.0080           0
     26377 WT1      8679     TIP3     OH2      OT      -0.834000       15.9994           0
     26378 WT1      8679     TIP3     H1       HT       0.417000        1.0080           0
     26379 WT1      8679     TIP3     H2       HT       0.417000        1.0080           0
     26380 WT1      8680     TIP3     OH2      OT      -0.834000       15.9994           0
     26381 WT1      8680     TIP3     H1       HT       0.417000        1.0080           0
     26382 WT1      8680     TIP3     H2       HT       0.417000        1.0080           0
     26383 WT1      8681     TIP3     OH2      OT      -0.834000       15.9994           0
     26384 WT1      8681     TIP3     H1       HT       0.417000        1.0080           0
     26385 WT1      8681     TIP3     H2       HT       0.417000        1.0080           0
     26386 WT1      8682     TIP3     OH2      OT      -0.834000       15.9994           0
     26387 WT1      8682     TIP3     H1       HT       0.417000        1.0080           0
     26388 WT1      8682     TIP3     H2       HT       0.417000        1.0080           0
     26389 WT1      8683     TIP3     OH2      OT      -0.834000       15.9994           0
     26390 WT1      8683     TIP3     H1       HT       0.417000        1.0080           0
     26391 WT1      8683     TIP3     H2       HT       0.417000        1.0080           0
     26392 WT1      8684     TIP3     OH2      OT      -0.834000       15.9994           0
     26393 WT1      8684     TIP3     H1       HT       0.417000        1.0080           0
     26394 WT1      8684     TIP3     H2       HT       0.417000        1.0080           0
     26395 WT1      8685     TIP3     OH2      OT      -0.834000       15.9994           0
     26396 WT1      8685     TIP3     H1       HT       0.417000        1.0080           0
     26397 WT1      8685     TIP3     H2       HT       0.417000        1.0080           0
     26398 WT1      8686     TIP3     OH2      OT      -0.834000       15.9994           0
     26399 WT1      8686     TIP3     H1       HT       0.417000        1.0080           0
     26400 WT1      8686     TIP3     H2       HT       0.417000        1.0080           0
     26401 WT1      8687     TIP3     OH2      OT      -0.834000       15.9994           0
     26402 WT1      8687     TIP3     H1       HT       0.417000        1.0080           0
     26403 WT1      8687     TIP3     H2       HT       0.417000        1.0080           0
     26404 WT1      8688     TIP3     OH2      OT      -0.834000       15.9994           0
     26405 WT1      8688     TIP3     H1       HT       0.417000        1.0080           0
     26406 WT1      8688     TIP3     H2       HT       0.417000        1.0080           0
     26407 WT1      8689     TIP3     OH2      OT      -0.834000       15.9994           0
     26408 WT1      8689     TIP3     H1       HT       0.417000        1.0080           0
     26409 WT1      8689     TIP3     H2       HT       0.417000        1.0080           0
     26410 WT1      8690     TIP3     OH2      OT      -0.834000       15.9994           0
     26411 WT1      8690     TIP3     H1       HT       0.417000        1.0080           0
     26412 WT1      8690     TIP3     H2       HT       0.417000        1.0080           0
     26413 WT1      8691     TIP3     OH2      OT      -0.834000       15.9994           0
     26414 WT1      8691     TIP3     H1       HT       0.417000        1.0080           0
     26415 WT1      8691     TIP3     H2       HT       0.417000        1.0080           0
     26416 WT1      8692     TIP3     OH2      OT      -0.834000       15.9994           0
     26417 WT1      8692     TIP3     H1       HT       0.417000        1.0080           0
     26418 WT1      8692     TIP3     H2       HT       0.417000        1.0080           0
     26419 WT1      8693     TIP3     OH2      OT      -0.834000       15.9994           0
     26420 WT1      8693     TIP3     H1       HT       0.417000        1.0080           0
     26421 WT1      8693     TIP3     H2       HT       0.417000        1.0080           0
     26422 WT1      8694     TIP3     OH2      OT      -0.834000       15.9994           0
     26423 WT1      8694     TIP3     H1       HT       0.417000        1.0080           0
     26424 WT1      8694     TIP3     H2       HT       0.417000        1.0080           0
     26425 WT1      8695     TIP3     OH2      OT      -0.834000       15.9994           0
     26426 WT1      8695     TIP3     H1       HT       0.417000        1.0080           0
     26427 WT1      8695     TIP3     H2       HT       0.417000        1.0080           0
     26428 WT1      8696     TIP3     OH2      OT      -0.834000       15.9994           0
     26429 WT1      8696     TIP3     H1       HT       0.417000        1.0080           0
     26430 WT1      8696     TIP3     H2       HT       0.417000        1.0080           0
     26431 WT1      8697     TIP3     OH2      OT      -0.834000       15.9994           0
     26432 WT1      8697     TIP3     H1       HT       0.417000        1.0080           0
     26433 WT1      8697     TIP3     H2       HT       0.417000        1.0080           0
     26434 WT1      8698     TIP3     OH2      OT      -0.834000       15.9994           0
     26435 WT1      8698     TIP3     H1       HT       0.417000        1.0080           0
     26436 WT1      8698     TIP3     H2       HT       0.417000        1.0080           0
     26437 WT1      8699     TIP3     OH2      OT      -0.834000       15.9994           0
     26438 WT1      8699     TIP3     H1       HT       0.417000        1.0080           0
     26439 WT1      8699     TIP3     H2       HT       0.417000        1.0080           0
     26440 WT1      8700     TIP3     OH2      OT      -0.834000       15.9994           0
     26441 WT1      8700     TIP3     H1       HT       0.417000        1.0080           0
     26442 WT1      8700     TIP3     H2       HT       0.417000        1.0080           0
     26443 WT1      8702     TIP3     OH2      OT      -0.834000       15.9994           0
     26444 WT1      8702     TIP3     H1       HT       0.417000        1.0080           0
     26445 WT1      8702     TIP3     H2       HT       0.417000        1.0080           0
     26446 WT1      8703     TIP3     OH2      OT      -0.834000       15.9994           0
     26447 WT1      8703     TIP3     H1       HT       0.417000        1.0080           0
     26448 WT1      8703     TIP3     H2       HT       0.417000        1.0080           0
     26449 WT1      8704     TIP3     OH2      OT      -0.834000       15.9994           0
     26450 WT1      8704     TIP3     H1       HT       0.417000        1.0080           0
     26451 WT1      8704     TIP3     H2       HT       0.417000        1.0080           0
     26452 WT1      8705     TIP3     OH2      OT      -0.834000       15.9994           0
     26453 WT1      8705     TIP3     H1       HT       0.417000        1.0080           0
     26454 WT1      8705     TIP3     H2       HT       0.417000        1.0080           0
     26455 WT1      8706     TIP3     OH2      OT      -0.834000       15.9994           0
     26456 WT1      8706     TIP3     H1       HT       0.417000        1.0080           0
     26457 WT1      8706     TIP3     H2       HT       0.417000        1.0080           0
     26458 WT1      8707     TIP3     OH2      OT      -0.834000       15.9994           0
     26459 WT1      8707     TIP3     H1       HT       0.417000        1.0080           0
     26460 WT1      8707     TIP3     H2       HT       0.417000        1.0080           0
     26461 WT1      8708     TIP3     OH2      OT      -0.834000       15.9994           0
     26462 WT1      8708     TIP3     H1       HT       0.417000        1.0080           0
     26463 WT1      8708     TIP3     H2       HT       0.417000        1.0080           0
     26464 WT1      8709     TIP3     OH2      OT      -0.834000       15.9994           0
     26465 WT1      8709     TIP3     H1       HT       0.417000        1.0080           0
     26466 WT1      8709     TIP3     H2       HT       0.417000        1.0080           0
     26467 WT1      8710     TIP3     OH2      OT      -0.834000       15.9994           0
     26468 WT1      8710     TIP3     H1       HT       0.417000        1.0080           0
     26469 WT1      8710     TIP3     H2       HT       0.417000        1.0080           0
     26470 WT1      8711     TIP3     OH2      OT      -0.834000       15.9994           0
     26471 WT1      8711     TIP3     H1       HT       0.417000        1.0080           0
     26472 WT1      8711     TIP3     H2       HT       0.417000        1.0080           0
     26473 WT1      8712     TIP3     OH2      OT      -0.834000       15.9994           0
     26474 WT1      8712     TIP3     H1       HT       0.417000        1.0080           0
     26475 WT1      8712     TIP3     H2       HT       0.417000        1.0080           0
     26476 WT1      8713     TIP3     OH2      OT      -0.834000       15.9994           0
     26477 WT1      8713     TIP3     H1       HT       0.417000        1.0080           0
     26478 WT1      8713     TIP3     H2       HT       0.417000        1.0080           0
     26479 WT1      8714     TIP3     OH2      OT      -0.834000       15.9994           0
     26480 WT1      8714     TIP3     H1       HT       0.417000        1.0080           0
     26481 WT1      8714     TIP3     H2       HT       0.417000        1.0080           0
     26482 WT1      8715     TIP3     OH2      OT      -0.834000       15.9994           0
     26483 WT1      8715     TIP3     H1       HT       0.417000        1.0080           0
     26484 WT1      8715     TIP3     H2       HT       0.417000        1.0080           0
     26485 WT1      8716     TIP3     OH2      OT      -0.834000       15.9994           0
     26486 WT1      8716     TIP3     H1       HT       0.417000        1.0080           0
     26487 WT1      8716     TIP3     H2       HT       0.417000        1.0080           0
     26488 WT1      8717     TIP3     OH2      OT      -0.834000       15.9994           0
     26489 WT1      8717     TIP3     H1       HT       0.417000        1.0080           0
     26490 WT1      8717     TIP3     H2       HT       0.417000        1.0080           0
     26491 WT1      8718     TIP3     OH2      OT      -0.834000       15.9994           0
     26492 WT1      8718     TIP3     H1       HT       0.417000        1.0080           0
     26493 WT1      8718     TIP3     H2       HT       0.417000        1.0080           0
     26494 WT1      8719     TIP3     OH2      OT      -0.834000       15.9994           0
     26495 WT1      8719     TIP3     H1       HT       0.417000        1.0080           0
     26496 WT1      8719     TIP3     H2       HT       0.417000        1.0080           0
     26497 WT1      8720     TIP3     OH2      OT      -0.834000       15.9994           0
     26498 WT1      8720     TIP3     H1       HT       0.417000        1.0080           0
     26499 WT1      8720     TIP3     H2       HT       0.417000        1.0080           0
     26500 WT1      8721     TIP3     OH2      OT      -0.834000       15.9994           0
     26501 WT1      8721     TIP3     H1       HT       0.417000        1.0080           0
     26502 WT1      8721     TIP3     H2       HT       0.417000        1.0080           0
     26503 WT1      8722     TIP3     OH2      OT      -0.834000       15.9994           0
     26504 WT1      8722     TIP3     H1       HT       0.417000        1.0080           0
     26505 WT1      8722     TIP3     H2       HT       0.417000        1.0080           0
     26506 WT1      8723     TIP3     OH2      OT      -0.834000       15.9994           0
     26507 WT1      8723     TIP3     H1       HT       0.417000        1.0080           0
     26508 WT1      8723     TIP3     H2       HT       0.417000        1.0080           0
     26509 WT1      8724     TIP3     OH2      OT      -0.834000       15.9994           0
     26510 WT1      8724     TIP3     H1       HT       0.417000        1.0080           0
     26511 WT1      8724     TIP3     H2       HT       0.417000        1.0080           0
     26512 WT1      8725     TIP3     OH2      OT      -0.834000       15.9994           0
     26513 WT1      8725     TIP3     H1       HT       0.417000        1.0080           0
     26514 WT1      8725     TIP3     H2       HT       0.417000        1.0080           0
     26515 WT1      8726     TIP3     OH2      OT      -0.834000       15.9994           0
     26516 WT1      8726     TIP3     H1       HT       0.417000        1.0080           0
     26517 WT1      8726     TIP3     H2       HT       0.417000        1.0080           0
     26518 WT1      8727     TIP3     OH2      OT      -0.834000       15.9994           0
     26519 WT1      8727     TIP3     H1       HT       0.417000        1.0080           0
     26520 WT1      8727     TIP3     H2       HT       0.417000        1.0080           0
     26521 WT1      8728     TIP3     OH2      OT      -0.834000       15.9994           0
     26522 WT1      8728     TIP3     H1       HT       0.417000        1.0080           0
     26523 WT1      8728     TIP3     H2       HT       0.417000        1.0080           0
     26524 WT1      8729     TIP3     OH2      OT      -0.834000       15.9994           0
     26525 WT1      8729     TIP3     H1       HT       0.417000        1.0080           0
     26526 WT1      8729     TIP3     H2       HT       0.417000        1.0080           0
     26527 WT1      8730     TIP3     OH2      OT      -0.834000       15.9994           0
     26528 WT1      8730     TIP3     H1       HT       0.417000        1.0080           0
     26529 WT1      8730     TIP3     H2       HT       0.417000        1.0080           0
     26530 WT1      8731     TIP3     OH2      OT      -0.834000       15.9994           0
     26531 WT1      8731     TIP3     H1       HT       0.417000        1.0080           0
     26532 WT1      8731     TIP3     H2       HT       0.417000        1.0080           0
     26533 WT1      8732     TIP3     OH2      OT      -0.834000       15.9994           0
     26534 WT1      8732     TIP3     H1       HT       0.417000        1.0080           0
     26535 WT1      8732     TIP3     H2       HT       0.417000        1.0080           0
     26536 WT1      8733     TIP3     OH2      OT      -0.834000       15.9994           0
     26537 WT1      8733     TIP3     H1       HT       0.417000        1.0080           0
     26538 WT1      8733     TIP3     H2       HT       0.417000        1.0080           0
     26539 WT1      8734     TIP3     OH2      OT      -0.834000       15.9994           0
     26540 WT1      8734     TIP3     H1       HT       0.417000        1.0080           0
     26541 WT1      8734     TIP3     H2       HT       0.417000        1.0080           0
     26542 WT1      8735     TIP3     OH2      OT      -0.834000       15.9994           0
     26543 WT1      8735     TIP3     H1       HT       0.417000        1.0080           0
     26544 WT1      8735     TIP3     H2       HT       0.417000        1.0080           0
     26545 WT1      8736     TIP3     OH2      OT      -0.834000       15.9994           0
     26546 WT1      8736     TIP3     H1       HT       0.417000        1.0080           0
     26547 WT1      8736     TIP3     H2       HT       0.417000        1.0080           0
     26548 WT1      8737     TIP3     OH2      OT      -0.834000       15.9994           0
     26549 WT1      8737     TIP3     H1       HT       0.417000        1.0080           0
     26550 WT1      8737     TIP3     H2       HT       0.417000        1.0080           0
     26551 WT1      8738     TIP3     OH2      OT      -0.834000       15.9994           0
     26552 WT1      8738     TIP3     H1       HT       0.417000        1.0080           0
     26553 WT1      8738     TIP3     H2       HT       0.417000        1.0080           0
     26554 WT1      8739     TIP3     OH2      OT      -0.834000       15.9994           0
     26555 WT1      8739     TIP3     H1       HT       0.417000        1.0080           0
     26556 WT1      8739     TIP3     H2       HT       0.417000        1.0080           0
     26557 WT1      8740     TIP3     OH2      OT      -0.834000       15.9994           0
     26558 WT1      8740     TIP3     H1       HT       0.417000        1.0080           0
     26559 WT1      8740     TIP3     H2       HT       0.417000        1.0080           0
     26560 WT1      8741     TIP3     OH2      OT      -0.834000       15.9994           0
     26561 WT1      8741     TIP3     H1       HT       0.417000        1.0080           0
     26562 WT1      8741     TIP3     H2       HT       0.417000        1.0080           0
     26563 WT1      8742     TIP3     OH2      OT      -0.834000       15.9994           0
     26564 WT1      8742     TIP3     H1       HT       0.417000        1.0080           0
     26565 WT1      8742     TIP3     H2       HT       0.417000        1.0080           0
     26566 WT1      8743     TIP3     OH2      OT      -0.834000       15.9994           0
     26567 WT1      8743     TIP3     H1       HT       0.417000        1.0080           0
     26568 WT1      8743     TIP3     H2       HT       0.417000        1.0080           0
     26569 WT1      8744     TIP3     OH2      OT      -0.834000       15.9994           0
     26570 WT1      8744     TIP3     H1       HT       0.417000        1.0080           0
     26571 WT1      8744     TIP3     H2       HT       0.417000        1.0080           0
     26572 WT1      8745     TIP3     OH2      OT      -0.834000       15.9994           0
     26573 WT1      8745     TIP3     H1       HT       0.417000        1.0080           0
     26574 WT1      8745     TIP3     H2       HT       0.417000        1.0080           0
     26575 WT1      8746     TIP3     OH2      OT      -0.834000       15.9994           0
     26576 WT1      8746     TIP3     H1       HT       0.417000        1.0080           0
     26577 WT1      8746     TIP3     H2       HT       0.417000        1.0080           0
     26578 WT1      8748     TIP3     OH2      OT      -0.834000       15.9994           0
     26579 WT1      8748     TIP3     H1       HT       0.417000        1.0080           0
     26580 WT1      8748     TIP3     H2       HT       0.417000        1.0080           0
     26581 WT1      8749     TIP3     OH2      OT      -0.834000       15.9994           0
     26582 WT1      8749     TIP3     H1       HT       0.417000        1.0080           0
     26583 WT1      8749     TIP3     H2       HT       0.417000        1.0080           0
     26584 WT1      8750     TIP3     OH2      OT      -0.834000       15.9994           0
     26585 WT1      8750     TIP3     H1       HT       0.417000        1.0080           0
     26586 WT1      8750     TIP3     H2       HT       0.417000        1.0080           0
     26587 WT1      8751     TIP3     OH2      OT      -0.834000       15.9994           0
     26588 WT1      8751     TIP3     H1       HT       0.417000        1.0080           0
     26589 WT1      8751     TIP3     H2       HT       0.417000        1.0080           0
     26590 WT1      8753     TIP3     OH2      OT      -0.834000       15.9994           0
     26591 WT1      8753     TIP3     H1       HT       0.417000        1.0080           0
     26592 WT1      8753     TIP3     H2       HT       0.417000        1.0080           0
     26593 WT1      8754     TIP3     OH2      OT      -0.834000       15.9994           0
     26594 WT1      8754     TIP3     H1       HT       0.417000        1.0080           0
     26595 WT1      8754     TIP3     H2       HT       0.417000        1.0080           0
     26596 WT1      8755     TIP3     OH2      OT      -0.834000       15.9994           0
     26597 WT1      8755     TIP3     H1       HT       0.417000        1.0080           0
     26598 WT1      8755     TIP3     H2       HT       0.417000        1.0080           0
     26599 WT1      8756     TIP3     OH2      OT      -0.834000       15.9994           0
     26600 WT1      8756     TIP3     H1       HT       0.417000        1.0080           0
     26601 WT1      8756     TIP3     H2       HT       0.417000        1.0080           0
     26602 WT1      8757     TIP3     OH2      OT      -0.834000       15.9994           0
     26603 WT1      8757     TIP3     H1       HT       0.417000        1.0080           0
     26604 WT1      8757     TIP3     H2       HT       0.417000        1.0080           0
     26605 WT1      8758     TIP3     OH2      OT      -0.834000       15.9994           0
     26606 WT1      8758     TIP3     H1       HT       0.417000        1.0080           0
     26607 WT1      8758     TIP3     H2       HT       0.417000        1.0080           0
     26608 WT1      8759     TIP3     OH2      OT      -0.834000       15.9994           0
     26609 WT1      8759     TIP3     H1       HT       0.417000        1.0080           0
     26610 WT1      8759     TIP3     H2       HT       0.417000        1.0080           0
     26611 WT1      8760     TIP3     OH2      OT      -0.834000       15.9994           0
     26612 WT1      8760     TIP3     H1       HT       0.417000        1.0080           0
     26613 WT1      8760     TIP3     H2       HT       0.417000        1.0080           0
     26614 WT1      8761     TIP3     OH2      OT      -0.834000       15.9994           0
     26615 WT1      8761     TIP3     H1       HT       0.417000        1.0080           0
     26616 WT1      8761     TIP3     H2       HT       0.417000        1.0080           0
     26617 WT1      8762     TIP3     OH2      OT      -0.834000       15.9994           0
     26618 WT1      8762     TIP3     H1       HT       0.417000        1.0080           0
     26619 WT1      8762     TIP3     H2       HT       0.417000        1.0080           0
     26620 WT1      8763     TIP3     OH2      OT      -0.834000       15.9994           0
     26621 WT1      8763     TIP3     H1       HT       0.417000        1.0080           0
     26622 WT1      8763     TIP3     H2       HT       0.417000        1.0080           0
     26623 WT1      8764     TIP3     OH2      OT      -0.834000       15.9994           0
     26624 WT1      8764     TIP3     H1       HT       0.417000        1.0080           0
     26625 WT1      8764     TIP3     H2       HT       0.417000        1.0080           0
     26626 WT1      8765     TIP3     OH2      OT      -0.834000       15.9994           0
     26627 WT1      8765     TIP3     H1       HT       0.417000        1.0080           0
     26628 WT1      8765     TIP3     H2       HT       0.417000        1.0080           0
     26629 WT1      8766     TIP3     OH2      OT      -0.834000       15.9994           0
     26630 WT1      8766     TIP3     H1       HT       0.417000        1.0080           0
     26631 WT1      8766     TIP3     H2       HT       0.417000        1.0080           0
     26632 WT1      8767     TIP3     OH2      OT      -0.834000       15.9994           0
     26633 WT1      8767     TIP3     H1       HT       0.417000        1.0080           0
     26634 WT1      8767     TIP3     H2       HT       0.417000        1.0080           0
     26635 WT1      8768     TIP3     OH2      OT      -0.834000       15.9994           0
     26636 WT1      8768     TIP3     H1       HT       0.417000        1.0080           0
     26637 WT1      8768     TIP3     H2       HT       0.417000        1.0080           0
     26638 WT1      8769     TIP3     OH2      OT      -0.834000       15.9994           0
     26639 WT1      8769     TIP3     H1       HT       0.417000        1.0080           0
     26640 WT1      8769     TIP3     H2       HT       0.417000        1.0080           0
     26641 WT1      8770     TIP3     OH2      OT      -0.834000       15.9994           0
     26642 WT1      8770     TIP3     H1       HT       0.417000        1.0080           0
     26643 WT1      8770     TIP3     H2       HT       0.417000        1.0080           0
     26644 WT1      8771     TIP3     OH2      OT      -0.834000       15.9994           0
     26645 WT1      8771     TIP3     H1       HT       0.417000        1.0080           0
     26646 WT1      8771     TIP3     H2       HT       0.417000        1.0080           0
     26647 WT1      8772     TIP3     OH2      OT      -0.834000       15.9994           0
     26648 WT1      8772     TIP3     H1       HT       0.417000        1.0080           0
     26649 WT1      8772     TIP3     H2       HT       0.417000        1.0080           0
     26650 WT1      8773     TIP3     OH2      OT      -0.834000       15.9994           0
     26651 WT1      8773     TIP3     H1       HT       0.417000        1.0080           0
     26652 WT1      8773     TIP3     H2       HT       0.417000        1.0080           0
     26653 WT1      8774     TIP3     OH2      OT      -0.834000       15.9994           0
     26654 WT1      8774     TIP3     H1       HT       0.417000        1.0080           0
     26655 WT1      8774     TIP3     H2       HT       0.417000        1.0080           0
     26656 WT1      8775     TIP3     OH2      OT      -0.834000       15.9994           0
     26657 WT1      8775     TIP3     H1       HT       0.417000        1.0080           0
     26658 WT1      8775     TIP3     H2       HT       0.417000        1.0080           0
     26659 WT1      8776     TIP3     OH2      OT      -0.834000       15.9994           0
     26660 WT1      8776     TIP3     H1       HT       0.417000        1.0080           0
     26661 WT1      8776     TIP3     H2       HT       0.417000        1.0080           0
     26662 WT1      8777     TIP3     OH2      OT      -0.834000       15.9994           0
     26663 WT1      8777     TIP3     H1       HT       0.417000        1.0080           0
     26664 WT1      8777     TIP3     H2       HT       0.417000        1.0080           0
     26665 WT1      8778     TIP3     OH2      OT      -0.834000       15.9994           0
     26666 WT1      8778     TIP3     H1       HT       0.417000        1.0080           0
     26667 WT1      8778     TIP3     H2       HT       0.417000        1.0080           0
     26668 WT1      8779     TIP3     OH2      OT      -0.834000       15.9994           0
     26669 WT1      8779     TIP3     H1       HT       0.417000        1.0080           0
     26670 WT1      8779     TIP3     H2       HT       0.417000        1.0080           0
     26671 WT1      8780     TIP3     OH2      OT      -0.834000       15.9994           0
     26672 WT1      8780     TIP3     H1       HT       0.417000        1.0080           0
     26673 WT1      8780     TIP3     H2       HT       0.417000        1.0080           0
     26674 WT1      8781     TIP3     OH2      OT      -0.834000       15.9994           0
     26675 WT1      8781     TIP3     H1       HT       0.417000        1.0080           0
     26676 WT1      8781     TIP3     H2       HT       0.417000        1.0080           0
     26677 WT1      8782     TIP3     OH2      OT      -0.834000       15.9994           0
     26678 WT1      8782     TIP3     H1       HT       0.417000        1.0080           0
     26679 WT1      8782     TIP3     H2       HT       0.417000        1.0080           0
     26680 WT1      8783     TIP3     OH2      OT      -0.834000       15.9994           0
     26681 WT1      8783     TIP3     H1       HT       0.417000        1.0080           0
     26682 WT1      8783     TIP3     H2       HT       0.417000        1.0080           0
     26683 WT1      8784     TIP3     OH2      OT      -0.834000       15.9994           0
     26684 WT1      8784     TIP3     H1       HT       0.417000        1.0080           0
     26685 WT1      8784     TIP3     H2       HT       0.417000        1.0080           0
     26686 WT1      8785     TIP3     OH2      OT      -0.834000       15.9994           0
     26687 WT1      8785     TIP3     H1       HT       0.417000        1.0080           0
     26688 WT1      8785     TIP3     H2       HT       0.417000        1.0080           0
     26689 WT1      8786     TIP3     OH2      OT      -0.834000       15.9994           0
     26690 WT1      8786     TIP3     H1       HT       0.417000        1.0080           0
     26691 WT1      8786     TIP3     H2       HT       0.417000        1.0080           0
     26692 WT1      8787     TIP3     OH2      OT      -0.834000       15.9994           0
     26693 WT1      8787     TIP3     H1       HT       0.417000        1.0080           0
     26694 WT1      8787     TIP3     H2       HT       0.417000        1.0080           0
     26695 WT1      8788     TIP3     OH2      OT      -0.834000       15.9994           0
     26696 WT1      8788     TIP3     H1       HT       0.417000        1.0080           0
     26697 WT1      8788     TIP3     H2       HT       0.417000        1.0080           0
     26698 WT1      8789     TIP3     OH2      OT      -0.834000       15.9994           0
     26699 WT1      8789     TIP3     H1       HT       0.417000        1.0080           0
     26700 WT1      8789     TIP3     H2       HT       0.417000        1.0080           0
     26701 WT1      8790     TIP3     OH2      OT      -0.834000       15.9994           0
     26702 WT1      8790     TIP3     H1       HT       0.417000        1.0080           0
     26703 WT1      8790     TIP3     H2       HT       0.417000        1.0080           0
     26704 WT1      8791     TIP3     OH2      OT      -0.834000       15.9994           0
     26705 WT1      8791     TIP3     H1       HT       0.417000        1.0080           0
     26706 WT1      8791     TIP3     H2       HT       0.417000        1.0080           0
     26707 WT1      8793     TIP3     OH2      OT      -0.834000       15.9994           0
     26708 WT1      8793     TIP3     H1       HT       0.417000        1.0080           0
     26709 WT1      8793     TIP3     H2       HT       0.417000        1.0080           0
     26710 WT1      8794     TIP3     OH2      OT      -0.834000       15.9994           0
     26711 WT1      8794     TIP3     H1       HT       0.417000        1.0080           0
     26712 WT1      8794     TIP3     H2       HT       0.417000        1.0080           0
     26713 WT1      8795     TIP3     OH2      OT      -0.834000       15.9994           0
     26714 WT1      8795     TIP3     H1       HT       0.417000        1.0080           0
     26715 WT1      8795     TIP3     H2       HT       0.417000        1.0080           0
     26716 WT1      8796     TIP3     OH2      OT      -0.834000       15.9994           0
     26717 WT1      8796     TIP3     H1       HT       0.417000        1.0080           0
     26718 WT1      8796     TIP3     H2       HT       0.417000        1.0080           0
     26719 WT1      8797     TIP3     OH2      OT      -0.834000       15.9994           0
     26720 WT1      8797     TIP3     H1       HT       0.417000        1.0080           0
     26721 WT1      8797     TIP3     H2       HT       0.417000        1.0080           0
     26722 WT1      8798     TIP3     OH2      OT      -0.834000       15.9994           0
     26723 WT1      8798     TIP3     H1       HT       0.417000        1.0080           0
     26724 WT1      8798     TIP3     H2       HT       0.417000        1.0080           0
     26725 WT1      8799     TIP3     OH2      OT      -0.834000       15.9994           0
     26726 WT1      8799     TIP3     H1       HT       0.417000        1.0080           0
     26727 WT1      8799     TIP3     H2       HT       0.417000        1.0080           0
     26728 WT1      8800     TIP3     OH2      OT      -0.834000       15.9994           0
     26729 WT1      8800     TIP3     H1       HT       0.417000        1.0080           0
     26730 WT1      8800     TIP3     H2       HT       0.417000        1.0080           0
     26731 WT1      8801     TIP3     OH2      OT      -0.834000       15.9994           0
     26732 WT1      8801     TIP3     H1       HT       0.417000        1.0080           0
     26733 WT1      8801     TIP3     H2       HT       0.417000        1.0080           0
     26734 WT1      8802     TIP3     OH2      OT      -0.834000       15.9994           0
     26735 WT1      8802     TIP3     H1       HT       0.417000        1.0080           0
     26736 WT1      8802     TIP3     H2       HT       0.417000        1.0080           0
     26737 WT1      8803     TIP3     OH2      OT      -0.834000       15.9994           0
     26738 WT1      8803     TIP3     H1       HT       0.417000        1.0080           0
     26739 WT1      8803     TIP3     H2       HT       0.417000        1.0080           0
     26740 WT1      8804     TIP3     OH2      OT      -0.834000       15.9994           0
     26741 WT1      8804     TIP3     H1       HT       0.417000        1.0080           0
     26742 WT1      8804     TIP3     H2       HT       0.417000        1.0080           0
     26743 WT1      8805     TIP3     OH2      OT      -0.834000       15.9994           0
     26744 WT1      8805     TIP3     H1       HT       0.417000        1.0080           0
     26745 WT1      8805     TIP3     H2       HT       0.417000        1.0080           0
     26746 WT1      8806     TIP3     OH2      OT      -0.834000       15.9994           0
     26747 WT1      8806     TIP3     H1       HT       0.417000        1.0080           0
     26748 WT1      8806     TIP3     H2       HT       0.417000        1.0080           0
     26749 WT1      8808     TIP3     OH2      OT      -0.834000       15.9994           0
     26750 WT1      8808     TIP3     H1       HT       0.417000        1.0080           0
     26751 WT1      8808     TIP3     H2       HT       0.417000        1.0080           0
     26752 WT1      8809     TIP3     OH2      OT      -0.834000       15.9994           0
     26753 WT1      8809     TIP3     H1       HT       0.417000        1.0080           0
     26754 WT1      8809     TIP3     H2       HT       0.417000        1.0080           0
     26755 WT1      8810     TIP3     OH2      OT      -0.834000       15.9994           0
     26756 WT1      8810     TIP3     H1       HT       0.417000        1.0080           0
     26757 WT1      8810     TIP3     H2       HT       0.417000        1.0080           0
     26758 WT1      8811     TIP3     OH2      OT      -0.834000       15.9994           0
     26759 WT1      8811     TIP3     H1       HT       0.417000        1.0080           0
     26760 WT1      8811     TIP3     H2       HT       0.417000        1.0080           0
     26761 WT1      8812     TIP3     OH2      OT      -0.834000       15.9994           0
     26762 WT1      8812     TIP3     H1       HT       0.417000        1.0080           0
     26763 WT1      8812     TIP3     H2       HT       0.417000        1.0080           0
     26764 WT1      8813     TIP3     OH2      OT      -0.834000       15.9994           0
     26765 WT1      8813     TIP3     H1       HT       0.417000        1.0080           0
     26766 WT1      8813     TIP3     H2       HT       0.417000        1.0080           0
     26767 WT1      8814     TIP3     OH2      OT      -0.834000       15.9994           0
     26768 WT1      8814     TIP3     H1       HT       0.417000        1.0080           0
     26769 WT1      8814     TIP3     H2       HT       0.417000        1.0080           0
     26770 WT1      8815     TIP3     OH2      OT      -0.834000       15.9994           0
     26771 WT1      8815     TIP3     H1       HT       0.417000        1.0080           0
     26772 WT1      8815     TIP3     H2       HT       0.417000        1.0080           0
     26773 WT1      8816     TIP3     OH2      OT      -0.834000       15.9994           0
     26774 WT1      8816     TIP3     H1       HT       0.417000        1.0080           0
     26775 WT1      8816     TIP3     H2       HT       0.417000        1.0080           0
     26776 WT1      8817     TIP3     OH2      OT      -0.834000       15.9994           0
     26777 WT1      8817     TIP3     H1       HT       0.417000        1.0080           0
     26778 WT1      8817     TIP3     H2       HT       0.417000        1.0080           0
     26779 WT1      8818     TIP3     OH2      OT      -0.834000       15.9994           0
     26780 WT1      8818     TIP3     H1       HT       0.417000        1.0080           0
     26781 WT1      8818     TIP3     H2       HT       0.417000        1.0080           0
     26782 WT1      8819     TIP3     OH2      OT      -0.834000       15.9994           0
     26783 WT1      8819     TIP3     H1       HT       0.417000        1.0080           0
     26784 WT1      8819     TIP3     H2       HT       0.417000        1.0080           0
     26785 WT1      8820     TIP3     OH2      OT      -0.834000       15.9994           0
     26786 WT1      8820     TIP3     H1       HT       0.417000        1.0080           0
     26787 WT1      8820     TIP3     H2       HT       0.417000        1.0080           0
     26788 WT1      8821     TIP3     OH2      OT      -0.834000       15.9994           0
     26789 WT1      8821     TIP3     H1       HT       0.417000        1.0080           0
     26790 WT1      8821     TIP3     H2       HT       0.417000        1.0080           0
     26791 WT1      8822     TIP3     OH2      OT      -0.834000       15.9994           0
     26792 WT1      8822     TIP3     H1       HT       0.417000        1.0080           0
     26793 WT1      8822     TIP3     H2       HT       0.417000        1.0080           0
     26794 WT1      8823     TIP3     OH2      OT      -0.834000       15.9994           0
     26795 WT1      8823     TIP3     H1       HT       0.417000        1.0080           0
     26796 WT1      8823     TIP3     H2       HT       0.417000        1.0080           0
     26797 WT1      8824     TIP3     OH2      OT      -0.834000       15.9994           0
     26798 WT1      8824     TIP3     H1       HT       0.417000        1.0080           0
     26799 WT1      8824     TIP3     H2       HT       0.417000        1.0080           0
     26800 WT1      8825     TIP3     OH2      OT      -0.834000       15.9994           0
     26801 WT1      8825     TIP3     H1       HT       0.417000        1.0080           0
     26802 WT1      8825     TIP3     H2       HT       0.417000        1.0080           0
     26803 WT1      8826     TIP3     OH2      OT      -0.834000       15.9994           0
     26804 WT1      8826     TIP3     H1       HT       0.417000        1.0080           0
     26805 WT1      8826     TIP3     H2       HT       0.417000        1.0080           0
     26806 WT1      8827     TIP3     OH2      OT      -0.834000       15.9994           0
     26807 WT1      8827     TIP3     H1       HT       0.417000        1.0080           0
     26808 WT1      8827     TIP3     H2       HT       0.417000        1.0080           0
     26809 WT1      8828     TIP3     OH2      OT      -0.834000       15.9994           0
     26810 WT1      8828     TIP3     H1       HT       0.417000        1.0080           0
     26811 WT1      8828     TIP3     H2       HT       0.417000        1.0080           0
     26812 WT1      8829     TIP3     OH2      OT      -0.834000       15.9994           0
     26813 WT1      8829     TIP3     H1       HT       0.417000        1.0080           0
     26814 WT1      8829     TIP3     H2       HT       0.417000        1.0080           0
     26815 WT1      8830     TIP3     OH2      OT      -0.834000       15.9994           0
     26816 WT1      8830     TIP3     H1       HT       0.417000        1.0080           0
     26817 WT1      8830     TIP3     H2       HT       0.417000        1.0080           0
     26818 WT1      8832     TIP3     OH2      OT      -0.834000       15.9994           0
     26819 WT1      8832     TIP3     H1       HT       0.417000        1.0080           0
     26820 WT1      8832     TIP3     H2       HT       0.417000        1.0080           0
     26821 WT1      8833     TIP3     OH2      OT      -0.834000       15.9994           0
     26822 WT1      8833     TIP3     H1       HT       0.417000        1.0080           0
     26823 WT1      8833     TIP3     H2       HT       0.417000        1.0080           0
     26824 WT1      8834     TIP3     OH2      OT      -0.834000       15.9994           0
     26825 WT1      8834     TIP3     H1       HT       0.417000        1.0080           0
     26826 WT1      8834     TIP3     H2       HT       0.417000        1.0080           0
     26827 WT1      8835     TIP3     OH2      OT      -0.834000       15.9994           0
     26828 WT1      8835     TIP3     H1       HT       0.417000        1.0080           0
     26829 WT1      8835     TIP3     H2       HT       0.417000        1.0080           0
     26830 WT1      8836     TIP3     OH2      OT      -0.834000       15.9994           0
     26831 WT1      8836     TIP3     H1       HT       0.417000        1.0080           0
     26832 WT1      8836     TIP3     H2       HT       0.417000        1.0080           0
     26833 WT1      8837     TIP3     OH2      OT      -0.834000       15.9994           0
     26834 WT1      8837     TIP3     H1       HT       0.417000        1.0080           0
     26835 WT1      8837     TIP3     H2       HT       0.417000        1.0080           0
     26836 WT1      8839     TIP3     OH2      OT      -0.834000       15.9994           0
     26837 WT1      8839     TIP3     H1       HT       0.417000        1.0080           0
     26838 WT1      8839     TIP3     H2       HT       0.417000        1.0080           0
     26839 WT1      8840     TIP3     OH2      OT      -0.834000       15.9994           0
     26840 WT1      8840     TIP3     H1       HT       0.417000        1.0080           0
     26841 WT1      8840     TIP3     H2       HT       0.417000        1.0080           0
     26842 WT1      8841     TIP3     OH2      OT      -0.834000       15.9994           0
     26843 WT1      8841     TIP3     H1       HT       0.417000        1.0080           0
     26844 WT1      8841     TIP3     H2       HT       0.417000        1.0080           0
     26845 WT1      8842     TIP3     OH2      OT      -0.834000       15.9994           0
     26846 WT1      8842     TIP3     H1       HT       0.417000        1.0080           0
     26847 WT1      8842     TIP3     H2       HT       0.417000        1.0080           0
     26848 WT1      8843     TIP3     OH2      OT      -0.834000       15.9994           0
     26849 WT1      8843     TIP3     H1       HT       0.417000        1.0080           0
     26850 WT1      8843     TIP3     H2       HT       0.417000        1.0080           0
     26851 WT1      8844     TIP3     OH2      OT      -0.834000       15.9994           0
     26852 WT1      8844     TIP3     H1       HT       0.417000        1.0080           0
     26853 WT1      8844     TIP3     H2       HT       0.417000        1.0080           0
     26854 WT1      8845     TIP3     OH2      OT      -0.834000       15.9994           0
     26855 WT1      8845     TIP3     H1       HT       0.417000        1.0080           0
     26856 WT1      8845     TIP3     H2       HT       0.417000        1.0080           0
     26857 WT1      8846     TIP3     OH2      OT      -0.834000       15.9994           0
     26858 WT1      8846     TIP3     H1       HT       0.417000        1.0080           0
     26859 WT1      8846     TIP3     H2       HT       0.417000        1.0080           0
     26860 WT1      8847     TIP3     OH2      OT      -0.834000       15.9994           0
     26861 WT1      8847     TIP3     H1       HT       0.417000        1.0080           0
     26862 WT1      8847     TIP3     H2       HT       0.417000        1.0080           0
     26863 WT1      8848     TIP3     OH2      OT      -0.834000       15.9994           0
     26864 WT1      8848     TIP3     H1       HT       0.417000        1.0080           0
     26865 WT1      8848     TIP3     H2       HT       0.417000        1.0080           0
     26866 WT1      8849     TIP3     OH2      OT      -0.834000       15.9994           0
     26867 WT1      8849     TIP3     H1       HT       0.417000        1.0080           0
     26868 WT1      8849     TIP3     H2       HT       0.417000        1.0080           0
     26869 WT1      8850     TIP3     OH2      OT      -0.834000       15.9994           0
     26870 WT1      8850     TIP3     H1       HT       0.417000        1.0080           0
     26871 WT1      8850     TIP3     H2       HT       0.417000        1.0080           0
     26872 WT1      8851     TIP3     OH2      OT      -0.834000       15.9994           0
     26873 WT1      8851     TIP3     H1       HT       0.417000        1.0080           0
     26874 WT1      8851     TIP3     H2       HT       0.417000        1.0080           0
     26875 WT1      8852     TIP3     OH2      OT      -0.834000       15.9994           0
     26876 WT1      8852     TIP3     H1       HT       0.417000        1.0080           0
     26877 WT1      8852     TIP3     H2       HT       0.417000        1.0080           0
     26878 WT1      8853     TIP3     OH2      OT      -0.834000       15.9994           0
     26879 WT1      8853     TIP3     H1       HT       0.417000        1.0080           0
     26880 WT1      8853     TIP3     H2       HT       0.417000        1.0080           0
     26881 WT1      8854     TIP3     OH2      OT      -0.834000       15.9994           0
     26882 WT1      8854     TIP3     H1       HT       0.417000        1.0080           0
     26883 WT1      8854     TIP3     H2       HT       0.417000        1.0080           0
     26884 WT1      8855     TIP3     OH2      OT      -0.834000       15.9994           0
     26885 WT1      8855     TIP3     H1       HT       0.417000        1.0080           0
     26886 WT1      8855     TIP3     H2       HT       0.417000        1.0080           0
     26887 WT1      8856     TIP3     OH2      OT      -0.834000       15.9994           0
     26888 WT1      8856     TIP3     H1       HT       0.417000        1.0080           0
     26889 WT1      8856     TIP3     H2       HT       0.417000        1.0080           0
     26890 WT1      8857     TIP3     OH2      OT      -0.834000       15.9994           0
     26891 WT1      8857     TIP3     H1       HT       0.417000        1.0080           0
     26892 WT1      8857     TIP3     H2       HT       0.417000        1.0080           0
     26893 WT1      8858     TIP3     OH2      OT      -0.834000       15.9994           0
     26894 WT1      8858     TIP3     H1       HT       0.417000        1.0080           0
     26895 WT1      8858     TIP3     H2       HT       0.417000        1.0080           0
     26896 WT1      8859     TIP3     OH2      OT      -0.834000       15.9994           0
     26897 WT1      8859     TIP3     H1       HT       0.417000        1.0080           0
     26898 WT1      8859     TIP3     H2       HT       0.417000        1.0080           0
     26899 WT1      8860     TIP3     OH2      OT      -0.834000       15.9994           0
     26900 WT1      8860     TIP3     H1       HT       0.417000        1.0080           0
     26901 WT1      8860     TIP3     H2       HT       0.417000        1.0080           0
     26902 WT1      8861     TIP3     OH2      OT      -0.834000       15.9994           0
     26903 WT1      8861     TIP3     H1       HT       0.417000        1.0080           0
     26904 WT1      8861     TIP3     H2       HT       0.417000        1.0080           0
     26905 WT1      8862     TIP3     OH2      OT      -0.834000       15.9994           0
     26906 WT1      8862     TIP3     H1       HT       0.417000        1.0080           0
     26907 WT1      8862     TIP3     H2       HT       0.417000        1.0080           0
     26908 WT1      8863     TIP3     OH2      OT      -0.834000       15.9994           0
     26909 WT1      8863     TIP3     H1       HT       0.417000        1.0080           0
     26910 WT1      8863     TIP3     H2       HT       0.417000        1.0080           0
     26911 WT1      8864     TIP3     OH2      OT      -0.834000       15.9994           0
     26912 WT1      8864     TIP3     H1       HT       0.417000        1.0080           0
     26913 WT1      8864     TIP3     H2       HT       0.417000        1.0080           0
     26914 WT1      8865     TIP3     OH2      OT      -0.834000       15.9994           0
     26915 WT1      8865     TIP3     H1       HT       0.417000        1.0080           0
     26916 WT1      8865     TIP3     H2       HT       0.417000        1.0080           0
     26917 WT1      8866     TIP3     OH2      OT      -0.834000       15.9994           0
     26918 WT1      8866     TIP3     H1       HT       0.417000        1.0080           0
     26919 WT1      8866     TIP3     H2       HT       0.417000        1.0080           0
     26920 WT1      8867     TIP3     OH2      OT      -0.834000       15.9994           0
     26921 WT1      8867     TIP3     H1       HT       0.417000        1.0080           0
     26922 WT1      8867     TIP3     H2       HT       0.417000        1.0080           0
     26923 WT1      8868     TIP3     OH2      OT      -0.834000       15.9994           0
     26924 WT1      8868     TIP3     H1       HT       0.417000        1.0080           0
     26925 WT1      8868     TIP3     H2       HT       0.417000        1.0080           0
     26926 WT1      8869     TIP3     OH2      OT      -0.834000       15.9994           0
     26927 WT1      8869     TIP3     H1       HT       0.417000        1.0080           0
     26928 WT1      8869     TIP3     H2       HT       0.417000        1.0080           0
     26929 WT1      8870     TIP3     OH2      OT      -0.834000       15.9994           0
     26930 WT1      8870     TIP3     H1       HT       0.417000        1.0080           0
     26931 WT1      8870     TIP3     H2       HT       0.417000        1.0080           0
     26932 WT1      8871     TIP3     OH2      OT      -0.834000       15.9994           0
     26933 WT1      8871     TIP3     H1       HT       0.417000        1.0080           0
     26934 WT1      8871     TIP3     H2       HT       0.417000        1.0080           0
     26935 WT1      8872     TIP3     OH2      OT      -0.834000       15.9994           0
     26936 WT1      8872     TIP3     H1       HT       0.417000        1.0080           0
     26937 WT1      8872     TIP3     H2       HT       0.417000        1.0080           0
     26938 WT1      8873     TIP3     OH2      OT      -0.834000       15.9994           0
     26939 WT1      8873     TIP3     H1       HT       0.417000        1.0080           0
     26940 WT1      8873     TIP3     H2       HT       0.417000        1.0080           0
     26941 WT1      8874     TIP3     OH2      OT      -0.834000       15.9994           0
     26942 WT1      8874     TIP3     H1       HT       0.417000        1.0080           0
     26943 WT1      8874     TIP3     H2       HT       0.417000        1.0080           0
     26944 WT1      8875     TIP3     OH2      OT      -0.834000       15.9994           0
     26945 WT1      8875     TIP3     H1       HT       0.417000        1.0080           0
     26946 WT1      8875     TIP3     H2       HT       0.417000        1.0080           0
     26947 WT1      8876     TIP3     OH2      OT      -0.834000       15.9994           0
     26948 WT1      8876     TIP3     H1       HT       0.417000        1.0080           0
     26949 WT1      8876     TIP3     H2       HT       0.417000        1.0080           0
     26950 WT1      8877     TIP3     OH2      OT      -0.834000       15.9994           0
     26951 WT1      8877     TIP3     H1       HT       0.417000        1.0080           0
     26952 WT1      8877     TIP3     H2       HT       0.417000        1.0080           0
     26953 WT1      8878     TIP3     OH2      OT      -0.834000       15.9994           0
     26954 WT1      8878     TIP3     H1       HT       0.417000        1.0080           0
     26955 WT1      8878     TIP3     H2       HT       0.417000        1.0080           0
     26956 WT1      8879     TIP3     OH2      OT      -0.834000       15.9994           0
     26957 WT1      8879     TIP3     H1       HT       0.417000        1.0080           0
     26958 WT1      8879     TIP3     H2       HT       0.417000        1.0080           0
     26959 WT1      8880     TIP3     OH2      OT      -0.834000       15.9994           0
     26960 WT1      8880     TIP3     H1       HT       0.417000        1.0080           0
     26961 WT1      8880     TIP3     H2       HT       0.417000        1.0080           0
     26962 WT1      8881     TIP3     OH2      OT      -0.834000       15.9994           0
     26963 WT1      8881     TIP3     H1       HT       0.417000        1.0080           0
     26964 WT1      8881     TIP3     H2       HT       0.417000        1.0080           0
     26965 WT1      8882     TIP3     OH2      OT      -0.834000       15.9994           0
     26966 WT1      8882     TIP3     H1       HT       0.417000        1.0080           0
     26967 WT1      8882     TIP3     H2       HT       0.417000        1.0080           0
     26968 WT1      8883     TIP3     OH2      OT      -0.834000       15.9994           0
     26969 WT1      8883     TIP3     H1       HT       0.417000        1.0080           0
     26970 WT1      8883     TIP3     H2       HT       0.417000        1.0080           0
     26971 WT1      8884     TIP3     OH2      OT      -0.834000       15.9994           0
     26972 WT1      8884     TIP3     H1       HT       0.417000        1.0080           0
     26973 WT1      8884     TIP3     H2       HT       0.417000        1.0080           0
     26974 WT1      8885     TIP3     OH2      OT      -0.834000       15.9994           0
     26975 WT1      8885     TIP3     H1       HT       0.417000        1.0080           0
     26976 WT1      8885     TIP3     H2       HT       0.417000        1.0080           0
     26977 WT1      8886     TIP3     OH2      OT      -0.834000       15.9994           0
     26978 WT1      8886     TIP3     H1       HT       0.417000        1.0080           0
     26979 WT1      8886     TIP3     H2       HT       0.417000        1.0080           0
     26980 WT1      8887     TIP3     OH2      OT      -0.834000       15.9994           0
     26981 WT1      8887     TIP3     H1       HT       0.417000        1.0080           0
     26982 WT1      8887     TIP3     H2       HT       0.417000        1.0080           0
     26983 WT1      8888     TIP3     OH2      OT      -0.834000       15.9994           0
     26984 WT1      8888     TIP3     H1       HT       0.417000        1.0080           0
     26985 WT1      8888     TIP3     H2       HT       0.417000        1.0080           0
     26986 WT1      8889     TIP3     OH2      OT      -0.834000       15.9994           0
     26987 WT1      8889     TIP3     H1       HT       0.417000        1.0080           0
     26988 WT1      8889     TIP3     H2       HT       0.417000        1.0080           0
     26989 WT1      8890     TIP3     OH2      OT      -0.834000       15.9994           0
     26990 WT1      8890     TIP3     H1       HT       0.417000        1.0080           0
     26991 WT1      8890     TIP3     H2       HT       0.417000        1.0080           0
     26992 WT1      8891     TIP3     OH2      OT      -0.834000       15.9994           0
     26993 WT1      8891     TIP3     H1       HT       0.417000        1.0080           0
     26994 WT1      8891     TIP3     H2       HT       0.417000        1.0080           0
     26995 WT1      8893     TIP3     OH2      OT      -0.834000       15.9994           0
     26996 WT1      8893     TIP3     H1       HT       0.417000        1.0080           0
     26997 WT1      8893     TIP3     H2       HT       0.417000        1.0080           0
     26998 WT1      8894     TIP3     OH2      OT      -0.834000       15.9994           0
     26999 WT1      8894     TIP3     H1       HT       0.417000        1.0080           0
     27000 WT1      8894     TIP3     H2       HT       0.417000        1.0080           0
     27001 WT1      8895     TIP3     OH2      OT      -0.834000       15.9994           0
     27002 WT1      8895     TIP3     H1       HT       0.417000        1.0080           0
     27003 WT1      8895     TIP3     H2       HT       0.417000        1.0080           0
     27004 WT1      8896     TIP3     OH2      OT      -0.834000       15.9994           0
     27005 WT1      8896     TIP3     H1       HT       0.417000        1.0080           0
     27006 WT1      8896     TIP3     H2       HT       0.417000        1.0080           0
     27007 WT1      8897     TIP3     OH2      OT      -0.834000       15.9994           0
     27008 WT1      8897     TIP3     H1       HT       0.417000        1.0080           0
     27009 WT1      8897     TIP3     H2       HT       0.417000        1.0080           0
     27010 WT1      8898     TIP3     OH2      OT      -0.834000       15.9994           0
     27011 WT1      8898     TIP3     H1       HT       0.417000        1.0080           0
     27012 WT1      8898     TIP3     H2       HT       0.417000        1.0080           0
     27013 WT1      8899     TIP3     OH2      OT      -0.834000       15.9994           0
     27014 WT1      8899     TIP3     H1       HT       0.417000        1.0080           0
     27015 WT1      8899     TIP3     H2       HT       0.417000        1.0080           0
     27016 WT1      8900     TIP3     OH2      OT      -0.834000       15.9994           0
     27017 WT1      8900     TIP3     H1       HT       0.417000        1.0080           0
     27018 WT1      8900     TIP3     H2       HT       0.417000        1.0080           0
     27019 WT1      8901     TIP3     OH2      OT      -0.834000       15.9994           0
     27020 WT1      8901     TIP3     H1       HT       0.417000        1.0080           0
     27021 WT1      8901     TIP3     H2       HT       0.417000        1.0080           0
     27022 WT1      8902     TIP3     OH2      OT      -0.834000       15.9994           0
     27023 WT1      8902     TIP3     H1       HT       0.417000        1.0080           0
     27024 WT1      8902     TIP3     H2       HT       0.417000        1.0080           0
     27025 WT1      8903     TIP3     OH2      OT      -0.834000       15.9994           0
     27026 WT1      8903     TIP3     H1       HT       0.417000        1.0080           0
     27027 WT1      8903     TIP3     H2       HT       0.417000        1.0080           0
     27028 WT1      8904     TIP3     OH2      OT      -0.834000       15.9994           0
     27029 WT1      8904     TIP3     H1       HT       0.417000        1.0080           0
     27030 WT1      8904     TIP3     H2       HT       0.417000        1.0080           0
     27031 WT1      8905     TIP3     OH2      OT      -0.834000       15.9994           0
     27032 WT1      8905     TIP3     H1       HT       0.417000        1.0080           0
     27033 WT1      8905     TIP3     H2       HT       0.417000        1.0080           0
     27034 WT1      8906     TIP3     OH2      OT      -0.834000       15.9994           0
     27035 WT1      8906     TIP3     H1       HT       0.417000        1.0080           0
     27036 WT1      8906     TIP3     H2       HT       0.417000        1.0080           0
     27037 WT1      8907     TIP3     OH2      OT      -0.834000       15.9994           0
     27038 WT1      8907     TIP3     H1       HT       0.417000        1.0080           0
     27039 WT1      8907     TIP3     H2       HT       0.417000        1.0080           0
     27040 WT1      8908     TIP3     OH2      OT      -0.834000       15.9994           0
     27041 WT1      8908     TIP3     H1       HT       0.417000        1.0080           0
     27042 WT1      8908     TIP3     H2       HT       0.417000        1.0080           0
     27043 WT1      8909     TIP3     OH2      OT      -0.834000       15.9994           0
     27044 WT1      8909     TIP3     H1       HT       0.417000        1.0080           0
     27045 WT1      8909     TIP3     H2       HT       0.417000        1.0080           0
     27046 WT1      8910     TIP3     OH2      OT      -0.834000       15.9994           0
     27047 WT1      8910     TIP3     H1       HT       0.417000        1.0080           0
     27048 WT1      8910     TIP3     H2       HT       0.417000        1.0080           0
     27049 WT1      8911     TIP3     OH2      OT      -0.834000       15.9994           0
     27050 WT1      8911     TIP3     H1       HT       0.417000        1.0080           0
     27051 WT1      8911     TIP3     H2       HT       0.417000        1.0080           0
     27052 WT1      8912     TIP3     OH2      OT      -0.834000       15.9994           0
     27053 WT1      8912     TIP3     H1       HT       0.417000        1.0080           0
     27054 WT1      8912     TIP3     H2       HT       0.417000        1.0080           0
     27055 WT1      8913     TIP3     OH2      OT      -0.834000       15.9994           0
     27056 WT1      8913     TIP3     H1       HT       0.417000        1.0080           0
     27057 WT1      8913     TIP3     H2       HT       0.417000        1.0080           0
     27058 WT1      8914     TIP3     OH2      OT      -0.834000       15.9994           0
     27059 WT1      8914     TIP3     H1       HT       0.417000        1.0080           0
     27060 WT1      8914     TIP3     H2       HT       0.417000        1.0080           0
     27061 WT1      8915     TIP3     OH2      OT      -0.834000       15.9994           0
     27062 WT1      8915     TIP3     H1       HT       0.417000        1.0080           0
     27063 WT1      8915     TIP3     H2       HT       0.417000        1.0080           0
     27064 WT1      8916     TIP3     OH2      OT      -0.834000       15.9994           0
     27065 WT1      8916     TIP3     H1       HT       0.417000        1.0080           0
     27066 WT1      8916     TIP3     H2       HT       0.417000        1.0080           0
     27067 WT1      8917     TIP3     OH2      OT      -0.834000       15.9994           0
     27068 WT1      8917     TIP3     H1       HT       0.417000        1.0080           0
     27069 WT1      8917     TIP3     H2       HT       0.417000        1.0080           0
     27070 WT1      8918     TIP3     OH2      OT      -0.834000       15.9994           0
     27071 WT1      8918     TIP3     H1       HT       0.417000        1.0080           0
     27072 WT1      8918     TIP3     H2       HT       0.417000        1.0080           0
     27073 WT1      8919     TIP3     OH2      OT      -0.834000       15.9994           0
     27074 WT1      8919     TIP3     H1       HT       0.417000        1.0080           0
     27075 WT1      8919     TIP3     H2       HT       0.417000        1.0080           0
     27076 WT1      8920     TIP3     OH2      OT      -0.834000       15.9994           0
     27077 WT1      8920     TIP3     H1       HT       0.417000        1.0080           0
     27078 WT1      8920     TIP3     H2       HT       0.417000        1.0080           0
     27079 WT1      8921     TIP3     OH2      OT      -0.834000       15.9994           0
     27080 WT1      8921     TIP3     H1       HT       0.417000        1.0080           0
     27081 WT1      8921     TIP3     H2       HT       0.417000        1.0080           0
     27082 WT1      8922     TIP3     OH2      OT      -0.834000       15.9994           0
     27083 WT1      8922     TIP3     H1       HT       0.417000        1.0080           0
     27084 WT1      8922     TIP3     H2       HT       0.417000        1.0080           0
     27085 WT1      8923     TIP3     OH2      OT      -0.834000       15.9994           0
     27086 WT1      8923     TIP3     H1       HT       0.417000        1.0080           0
     27087 WT1      8923     TIP3     H2       HT       0.417000        1.0080           0
     27088 WT1      8924     TIP3     OH2      OT      -0.834000       15.9994           0
     27089 WT1      8924     TIP3     H1       HT       0.417000        1.0080           0
     27090 WT1      8924     TIP3     H2       HT       0.417000        1.0080           0
     27091 WT1      8926     TIP3     OH2      OT      -0.834000       15.9994           0
     27092 WT1      8926     TIP3     H1       HT       0.417000        1.0080           0
     27093 WT1      8926     TIP3     H2       HT       0.417000        1.0080           0
     27094 WT1      8927     TIP3     OH2      OT      -0.834000       15.9994           0
     27095 WT1      8927     TIP3     H1       HT       0.417000        1.0080           0
     27096 WT1      8927     TIP3     H2       HT       0.417000        1.0080           0
     27097 WT1      8928     TIP3     OH2      OT      -0.834000       15.9994           0
     27098 WT1      8928     TIP3     H1       HT       0.417000        1.0080           0
     27099 WT1      8928     TIP3     H2       HT       0.417000        1.0080           0
     27100 WT1      8929     TIP3     OH2      OT      -0.834000       15.9994           0
     27101 WT1      8929     TIP3     H1       HT       0.417000        1.0080           0
     27102 WT1      8929     TIP3     H2       HT       0.417000        1.0080           0
     27103 WT1      8930     TIP3     OH2      OT      -0.834000       15.9994           0
     27104 WT1      8930     TIP3     H1       HT       0.417000        1.0080           0
     27105 WT1      8930     TIP3     H2       HT       0.417000        1.0080           0
     27106 WT1      8931     TIP3     OH2      OT      -0.834000       15.9994           0
     27107 WT1      8931     TIP3     H1       HT       0.417000        1.0080           0
     27108 WT1      8931     TIP3     H2       HT       0.417000        1.0080           0
     27109 WT1      8932     TIP3     OH2      OT      -0.834000       15.9994           0
     27110 WT1      8932     TIP3     H1       HT       0.417000        1.0080           0
     27111 WT1      8932     TIP3     H2       HT       0.417000        1.0080           0
     27112 WT1      8933     TIP3     OH2      OT      -0.834000       15.9994           0
     27113 WT1      8933     TIP3     H1       HT       0.417000        1.0080           0
     27114 WT1      8933     TIP3     H2       HT       0.417000        1.0080           0
     27115 WT1      8934     TIP3     OH2      OT      -0.834000       15.9994           0
     27116 WT1      8934     TIP3     H1       HT       0.417000        1.0080           0
     27117 WT1      8934     TIP3     H2       HT       0.417000        1.0080           0
     27118 WT1      8935     TIP3     OH2      OT      -0.834000       15.9994           0
     27119 WT1      8935     TIP3     H1       HT       0.417000        1.0080           0
     27120 WT1      8935     TIP3     H2       HT       0.417000        1.0080           0
     27121 WT1      8936     TIP3     OH2      OT      -0.834000       15.9994           0
     27122 WT1      8936     TIP3     H1       HT       0.417000        1.0080           0
     27123 WT1      8936     TIP3     H2       HT       0.417000        1.0080           0
     27124 WT1      8937     TIP3     OH2      OT      -0.834000       15.9994           0
     27125 WT1      8937     TIP3     H1       HT       0.417000        1.0080           0
     27126 WT1      8937     TIP3     H2       HT       0.417000        1.0080           0
     27127 WT1      8938     TIP3     OH2      OT      -0.834000       15.9994           0
     27128 WT1      8938     TIP3     H1       HT       0.417000        1.0080           0
     27129 WT1      8938     TIP3     H2       HT       0.417000        1.0080           0
     27130 WT1      8939     TIP3     OH2      OT      -0.834000       15.9994           0
     27131 WT1      8939     TIP3     H1       HT       0.417000        1.0080           0
     27132 WT1      8939     TIP3     H2       HT       0.417000        1.0080           0
     27133 WT1      8940     TIP3     OH2      OT      -0.834000       15.9994           0
     27134 WT1      8940     TIP3     H1       HT       0.417000        1.0080           0
     27135 WT1      8940     TIP3     H2       HT       0.417000        1.0080           0
     27136 WT1      8941     TIP3     OH2      OT      -0.834000       15.9994           0
     27137 WT1      8941     TIP3     H1       HT       0.417000        1.0080           0
     27138 WT1      8941     TIP3     H2       HT       0.417000        1.0080           0
     27139 WT1      8942     TIP3     OH2      OT      -0.834000       15.9994           0
     27140 WT1      8942     TIP3     H1       HT       0.417000        1.0080           0
     27141 WT1      8942     TIP3     H2       HT       0.417000        1.0080           0
     27142 WT1      8943     TIP3     OH2      OT      -0.834000       15.9994           0
     27143 WT1      8943     TIP3     H1       HT       0.417000        1.0080           0
     27144 WT1      8943     TIP3     H2       HT       0.417000        1.0080           0
     27145 WT1      8944     TIP3     OH2      OT      -0.834000       15.9994           0
     27146 WT1      8944     TIP3     H1       HT       0.417000        1.0080           0
     27147 WT1      8944     TIP3     H2       HT       0.417000        1.0080           0
     27148 WT1      8945     TIP3     OH2      OT      -0.834000       15.9994           0
     27149 WT1      8945     TIP3     H1       HT       0.417000        1.0080           0
     27150 WT1      8945     TIP3     H2       HT       0.417000        1.0080           0
     27151 WT1      8946     TIP3     OH2      OT      -0.834000       15.9994           0
     27152 WT1      8946     TIP3     H1       HT       0.417000        1.0080           0
     27153 WT1      8946     TIP3     H2       HT       0.417000        1.0080           0
     27154 WT1      8947     TIP3     OH2      OT      -0.834000       15.9994           0
     27155 WT1      8947     TIP3     H1       HT       0.417000        1.0080           0
     27156 WT1      8947     TIP3     H2       HT       0.417000        1.0080           0
     27157 WT1      8948     TIP3     OH2      OT      -0.834000       15.9994           0
     27158 WT1      8948     TIP3     H1       HT       0.417000        1.0080           0
     27159 WT1      8948     TIP3     H2       HT       0.417000        1.0080           0
     27160 WT1      8949     TIP3     OH2      OT      -0.834000       15.9994           0
     27161 WT1      8949     TIP3     H1       HT       0.417000        1.0080           0
     27162 WT1      8949     TIP3     H2       HT       0.417000        1.0080           0
     27163 WT1      8950     TIP3     OH2      OT      -0.834000       15.9994           0
     27164 WT1      8950     TIP3     H1       HT       0.417000        1.0080           0
     27165 WT1      8950     TIP3     H2       HT       0.417000        1.0080           0
     27166 WT1      8951     TIP3     OH2      OT      -0.834000       15.9994           0
     27167 WT1      8951     TIP3     H1       HT       0.417000        1.0080           0
     27168 WT1      8951     TIP3     H2       HT       0.417000        1.0080           0
     27169 WT1      8952     TIP3     OH2      OT      -0.834000       15.9994           0
     27170 WT1      8952     TIP3     H1       HT       0.417000        1.0080           0
     27171 WT1      8952     TIP3     H2       HT       0.417000        1.0080           0
     27172 WT1      8953     TIP3     OH2      OT      -0.834000       15.9994           0
     27173 WT1      8953     TIP3     H1       HT       0.417000        1.0080           0
     27174 WT1      8953     TIP3     H2       HT       0.417000        1.0080           0
     27175 WT1      8954     TIP3     OH2      OT      -0.834000       15.9994           0
     27176 WT1      8954     TIP3     H1       HT       0.417000        1.0080           0
     27177 WT1      8954     TIP3     H2       HT       0.417000        1.0080           0
     27178 WT1      8955     TIP3     OH2      OT      -0.834000       15.9994           0
     27179 WT1      8955     TIP3     H1       HT       0.417000        1.0080           0
     27180 WT1      8955     TIP3     H2       HT       0.417000        1.0080           0
     27181 WT1      8956     TIP3     OH2      OT      -0.834000       15.9994           0
     27182 WT1      8956     TIP3     H1       HT       0.417000        1.0080           0
     27183 WT1      8956     TIP3     H2       HT       0.417000        1.0080           0
     27184 WT1      8957     TIP3     OH2      OT      -0.834000       15.9994           0
     27185 WT1      8957     TIP3     H1       HT       0.417000        1.0080           0
     27186 WT1      8957     TIP3     H2       HT       0.417000        1.0080           0
     27187 WT1      8958     TIP3     OH2      OT      -0.834000       15.9994           0
     27188 WT1      8958     TIP3     H1       HT       0.417000        1.0080           0
     27189 WT1      8958     TIP3     H2       HT       0.417000        1.0080           0
     27190 WT1      8959     TIP3     OH2      OT      -0.834000       15.9994           0
     27191 WT1      8959     TIP3     H1       HT       0.417000        1.0080           0
     27192 WT1      8959     TIP3     H2       HT       0.417000        1.0080           0
     27193 WT1      8960     TIP3     OH2      OT      -0.834000       15.9994           0
     27194 WT1      8960     TIP3     H1       HT       0.417000        1.0080           0
     27195 WT1      8960     TIP3     H2       HT       0.417000        1.0080           0
     27196 WT1      8961     TIP3     OH2      OT      -0.834000       15.9994           0
     27197 WT1      8961     TIP3     H1       HT       0.417000        1.0080           0
     27198 WT1      8961     TIP3     H2       HT       0.417000        1.0080           0
     27199 WT1      8962     TIP3     OH2      OT      -0.834000       15.9994           0
     27200 WT1      8962     TIP3     H1       HT       0.417000        1.0080           0
     27201 WT1      8962     TIP3     H2       HT       0.417000        1.0080           0
     27202 WT1      8963     TIP3     OH2      OT      -0.834000       15.9994           0
     27203 WT1      8963     TIP3     H1       HT       0.417000        1.0080           0
     27204 WT1      8963     TIP3     H2       HT       0.417000        1.0080           0
     27205 WT1      8964     TIP3     OH2      OT      -0.834000       15.9994           0
     27206 WT1      8964     TIP3     H1       HT       0.417000        1.0080           0
     27207 WT1      8964     TIP3     H2       HT       0.417000        1.0080           0
     27208 WT1      8965     TIP3     OH2      OT      -0.834000       15.9994           0
     27209 WT1      8965     TIP3     H1       HT       0.417000        1.0080           0
     27210 WT1      8965     TIP3     H2       HT       0.417000        1.0080           0
     27211 WT1      8966     TIP3     OH2      OT      -0.834000       15.9994           0
     27212 WT1      8966     TIP3     H1       HT       0.417000        1.0080           0
     27213 WT1      8966     TIP3     H2       HT       0.417000        1.0080           0
     27214 WT1      8967     TIP3     OH2      OT      -0.834000       15.9994           0
     27215 WT1      8967     TIP3     H1       HT       0.417000        1.0080           0
     27216 WT1      8967     TIP3     H2       HT       0.417000        1.0080           0
     27217 WT1      8968     TIP3     OH2      OT      -0.834000       15.9994           0
     27218 WT1      8968     TIP3     H1       HT       0.417000        1.0080           0
     27219 WT1      8968     TIP3     H2       HT       0.417000        1.0080           0
     27220 WT1      8969     TIP3     OH2      OT      -0.834000       15.9994           0
     27221 WT1      8969     TIP3     H1       HT       0.417000        1.0080           0
     27222 WT1      8969     TIP3     H2       HT       0.417000        1.0080           0
     27223 WT1      8970     TIP3     OH2      OT      -0.834000       15.9994           0
     27224 WT1      8970     TIP3     H1       HT       0.417000        1.0080           0
     27225 WT1      8970     TIP3     H2       HT       0.417000        1.0080           0
     27226 WT1      8971     TIP3     OH2      OT      -0.834000       15.9994           0
     27227 WT1      8971     TIP3     H1       HT       0.417000        1.0080           0
     27228 WT1      8971     TIP3     H2       HT       0.417000        1.0080           0
     27229 WT1      8972     TIP3     OH2      OT      -0.834000       15.9994           0
     27230 WT1      8972     TIP3     H1       HT       0.417000        1.0080           0
     27231 WT1      8972     TIP3     H2       HT       0.417000        1.0080           0
     27232 WT1      8973     TIP3     OH2      OT      -0.834000       15.9994           0
     27233 WT1      8973     TIP3     H1       HT       0.417000        1.0080           0
     27234 WT1      8973     TIP3     H2       HT       0.417000        1.0080           0
     27235 WT1      8974     TIP3     OH2      OT      -0.834000       15.9994           0
     27236 WT1      8974     TIP3     H1       HT       0.417000        1.0080           0
     27237 WT1      8974     TIP3     H2       HT       0.417000        1.0080           0
     27238 WT1      8975     TIP3     OH2      OT      -0.834000       15.9994           0
     27239 WT1      8975     TIP3     H1       HT       0.417000        1.0080           0
     27240 WT1      8975     TIP3     H2       HT       0.417000        1.0080           0
     27241 WT1      8976     TIP3     OH2      OT      -0.834000       15.9994           0
     27242 WT1      8976     TIP3     H1       HT       0.417000        1.0080           0
     27243 WT1      8976     TIP3     H2       HT       0.417000        1.0080           0
     27244 WT1      8977     TIP3     OH2      OT      -0.834000       15.9994           0
     27245 WT1      8977     TIP3     H1       HT       0.417000        1.0080           0
     27246 WT1      8977     TIP3     H2       HT       0.417000        1.0080           0
     27247 WT1      8978     TIP3     OH2      OT      -0.834000       15.9994           0
     27248 WT1      8978     TIP3     H1       HT       0.417000        1.0080           0
     27249 WT1      8978     TIP3     H2       HT       0.417000        1.0080           0
     27250 WT1      8979     TIP3     OH2      OT      -0.834000       15.9994           0
     27251 WT1      8979     TIP3     H1       HT       0.417000        1.0080           0
     27252 WT1      8979     TIP3     H2       HT       0.417000        1.0080           0
     27253 WT1      8980     TIP3     OH2      OT      -0.834000       15.9994           0
     27254 WT1      8980     TIP3     H1       HT       0.417000        1.0080           0
     27255 WT1      8980     TIP3     H2       HT       0.417000        1.0080           0
     27256 WT1      8981     TIP3     OH2      OT      -0.834000       15.9994           0
     27257 WT1      8981     TIP3     H1       HT       0.417000        1.0080           0
     27258 WT1      8981     TIP3     H2       HT       0.417000        1.0080           0
     27259 WT1      8982     TIP3     OH2      OT      -0.834000       15.9994           0
     27260 WT1      8982     TIP3     H1       HT       0.417000        1.0080           0
     27261 WT1      8982     TIP3     H2       HT       0.417000        1.0080           0
     27262 WT1      8983     TIP3     OH2      OT      -0.834000       15.9994           0
     27263 WT1      8983     TIP3     H1       HT       0.417000        1.0080           0
     27264 WT1      8983     TIP3     H2       HT       0.417000        1.0080           0
     27265 WT1      8984     TIP3     OH2      OT      -0.834000       15.9994           0
     27266 WT1      8984     TIP3     H1       HT       0.417000        1.0080           0
     27267 WT1      8984     TIP3     H2       HT       0.417000        1.0080           0
     27268 WT1      8985     TIP3     OH2      OT      -0.834000       15.9994           0
     27269 WT1      8985     TIP3     H1       HT       0.417000        1.0080           0
     27270 WT1      8985     TIP3     H2       HT       0.417000        1.0080           0
     27271 WT1      8986     TIP3     OH2      OT      -0.834000       15.9994           0
     27272 WT1      8986     TIP3     H1       HT       0.417000        1.0080           0
     27273 WT1      8986     TIP3     H2       HT       0.417000        1.0080           0
     27274 WT1      8987     TIP3     OH2      OT      -0.834000       15.9994           0
     27275 WT1      8987     TIP3     H1       HT       0.417000        1.0080           0
     27276 WT1      8987     TIP3     H2       HT       0.417000        1.0080           0
     27277 WT1      8988     TIP3     OH2      OT      -0.834000       15.9994           0
     27278 WT1      8988     TIP3     H1       HT       0.417000        1.0080           0
     27279 WT1      8988     TIP3     H2       HT       0.417000        1.0080           0
     27280 WT1      8989     TIP3     OH2      OT      -0.834000       15.9994           0
     27281 WT1      8989     TIP3     H1       HT       0.417000        1.0080           0
     27282 WT1      8989     TIP3     H2       HT       0.417000        1.0080           0
     27283 WT1      8990     TIP3     OH2      OT      -0.834000       15.9994           0
     27284 WT1      8990     TIP3     H1       HT       0.417000        1.0080           0
     27285 WT1      8990     TIP3     H2       HT       0.417000        1.0080           0
     27286 WT1      8991     TIP3     OH2      OT      -0.834000       15.9994           0
     27287 WT1      8991     TIP3     H1       HT       0.417000        1.0080           0
     27288 WT1      8991     TIP3     H2       HT       0.417000        1.0080           0
     27289 WT1      8992     TIP3     OH2      OT      -0.834000       15.9994           0
     27290 WT1      8992     TIP3     H1       HT       0.417000        1.0080           0
     27291 WT1      8992     TIP3     H2       HT       0.417000        1.0080           0
     27292 WT1      8993     TIP3     OH2      OT      -0.834000       15.9994           0
     27293 WT1      8993     TIP3     H1       HT       0.417000        1.0080           0
     27294 WT1      8993     TIP3     H2       HT       0.417000        1.0080           0
     27295 WT1      8994     TIP3     OH2      OT      -0.834000       15.9994           0
     27296 WT1      8994     TIP3     H1       HT       0.417000        1.0080           0
     27297 WT1      8994     TIP3     H2       HT       0.417000        1.0080           0
     27298 WT1      8995     TIP3     OH2      OT      -0.834000       15.9994           0
     27299 WT1      8995     TIP3     H1       HT       0.417000        1.0080           0
     27300 WT1      8995     TIP3     H2       HT       0.417000        1.0080           0
     27301 WT1      8996     TIP3     OH2      OT      -0.834000       15.9994           0
     27302 WT1      8996     TIP3     H1       HT       0.417000        1.0080           0
     27303 WT1      8996     TIP3     H2       HT       0.417000        1.0080           0
     27304 WT1      8997     TIP3     OH2      OT      -0.834000       15.9994           0
     27305 WT1      8997     TIP3     H1       HT       0.417000        1.0080           0
     27306 WT1      8997     TIP3     H2       HT       0.417000        1.0080           0
     27307 WT1      8998     TIP3     OH2      OT      -0.834000       15.9994           0
     27308 WT1      8998     TIP3     H1       HT       0.417000        1.0080           0
     27309 WT1      8998     TIP3     H2       HT       0.417000        1.0080           0
     27310 WT1      8999     TIP3     OH2      OT      -0.834000       15.9994           0
     27311 WT1      8999     TIP3     H1       HT       0.417000        1.0080           0
     27312 WT1      8999     TIP3     H2       HT       0.417000        1.0080           0
     27313 WT1      9000     TIP3     OH2      OT      -0.834000       15.9994           0
     27314 WT1      9000     TIP3     H1       HT       0.417000        1.0080           0
     27315 WT1      9000     TIP3     H2       HT       0.417000        1.0080           0
     27316 WT1      9001     TIP3     OH2      OT      -0.834000       15.9994           0
     27317 WT1      9001     TIP3     H1       HT       0.417000        1.0080           0
     27318 WT1      9001     TIP3     H2       HT       0.417000        1.0080           0
     27319 WT1      9002     TIP3     OH2      OT      -0.834000       15.9994           0
     27320 WT1      9002     TIP3     H1       HT       0.417000        1.0080           0
     27321 WT1      9002     TIP3     H2       HT       0.417000        1.0080           0
     27322 WT1      9003     TIP3     OH2      OT      -0.834000       15.9994           0
     27323 WT1      9003     TIP3     H1       HT       0.417000        1.0080           0
     27324 WT1      9003     TIP3     H2       HT       0.417000        1.0080           0
     27325 WT1      9004     TIP3     OH2      OT      -0.834000       15.9994           0
     27326 WT1      9004     TIP3     H1       HT       0.417000        1.0080           0
     27327 WT1      9004     TIP3     H2       HT       0.417000        1.0080           0
     27328 WT1      9005     TIP3     OH2      OT      -0.834000       15.9994           0
     27329 WT1      9005     TIP3     H1       HT       0.417000        1.0080           0
     27330 WT1      9005     TIP3     H2       HT       0.417000        1.0080           0
     27331 WT1      9006     TIP3     OH2      OT      -0.834000       15.9994           0
     27332 WT1      9006     TIP3     H1       HT       0.417000        1.0080           0
     27333 WT1      9006     TIP3     H2       HT       0.417000        1.0080           0
     27334 WT1      9007     TIP3     OH2      OT      -0.834000       15.9994           0
     27335 WT1      9007     TIP3     H1       HT       0.417000        1.0080           0
     27336 WT1      9007     TIP3     H2       HT       0.417000        1.0080           0
     27337 WT1      9008     TIP3     OH2      OT      -0.834000       15.9994           0
     27338 WT1      9008     TIP3     H1       HT       0.417000        1.0080           0
     27339 WT1      9008     TIP3     H2       HT       0.417000        1.0080           0
     27340 WT1      9009     TIP3     OH2      OT      -0.834000       15.9994           0
     27341 WT1      9009     TIP3     H1       HT       0.417000        1.0080           0
     27342 WT1      9009     TIP3     H2       HT       0.417000        1.0080           0
     27343 WT1      9010     TIP3     OH2      OT      -0.834000       15.9994           0
     27344 WT1      9010     TIP3     H1       HT       0.417000        1.0080           0
     27345 WT1      9010     TIP3     H2       HT       0.417000        1.0080           0
     27346 WT1      9011     TIP3     OH2      OT      -0.834000       15.9994           0
     27347 WT1      9011     TIP3     H1       HT       0.417000        1.0080           0
     27348 WT1      9011     TIP3     H2       HT       0.417000        1.0080           0
     27349 WT1      9012     TIP3     OH2      OT      -0.834000       15.9994           0
     27350 WT1      9012     TIP3     H1       HT       0.417000        1.0080           0
     27351 WT1      9012     TIP3     H2       HT       0.417000        1.0080           0
     27352 WT1      9013     TIP3     OH2      OT      -0.834000       15.9994           0
     27353 WT1      9013     TIP3     H1       HT       0.417000        1.0080           0
     27354 WT1      9013     TIP3     H2       HT       0.417000        1.0080           0
     27355 WT1      9014     TIP3     OH2      OT      -0.834000       15.9994           0
     27356 WT1      9014     TIP3     H1       HT       0.417000        1.0080           0
     27357 WT1      9014     TIP3     H2       HT       0.417000        1.0080           0
     27358 WT1      9015     TIP3     OH2      OT      -0.834000       15.9994           0
     27359 WT1      9015     TIP3     H1       HT       0.417000        1.0080           0
     27360 WT1      9015     TIP3     H2       HT       0.417000        1.0080           0
     27361 WT1      9016     TIP3     OH2      OT      -0.834000       15.9994           0
     27362 WT1      9016     TIP3     H1       HT       0.417000        1.0080           0
     27363 WT1      9016     TIP3     H2       HT       0.417000        1.0080           0
     27364 WT1      9017     TIP3     OH2      OT      -0.834000       15.9994           0
     27365 WT1      9017     TIP3     H1       HT       0.417000        1.0080           0
     27366 WT1      9017     TIP3     H2       HT       0.417000        1.0080           0
     27367 WT1      9018     TIP3     OH2      OT      -0.834000       15.9994           0
     27368 WT1      9018     TIP3     H1       HT       0.417000        1.0080           0
     27369 WT1      9018     TIP3     H2       HT       0.417000        1.0080           0
     27370 WT1      9019     TIP3     OH2      OT      -0.834000       15.9994           0
     27371 WT1      9019     TIP3     H1       HT       0.417000        1.0080           0
     27372 WT1      9019     TIP3     H2       HT       0.417000        1.0080           0
     27373 WT1      9020     TIP3     OH2      OT      -0.834000       15.9994           0
     27374 WT1      9020     TIP3     H1       HT       0.417000        1.0080           0
     27375 WT1      9020     TIP3     H2       HT       0.417000        1.0080           0
     27376 WT1      9021     TIP3     OH2      OT      -0.834000       15.9994           0
     27377 WT1      9021     TIP3     H1       HT       0.417000        1.0080           0
     27378 WT1      9021     TIP3     H2       HT       0.417000        1.0080           0
     27379 WT1      9022     TIP3     OH2      OT      -0.834000       15.9994           0
     27380 WT1      9022     TIP3     H1       HT       0.417000        1.0080           0
     27381 WT1      9022     TIP3     H2       HT       0.417000        1.0080           0
     27382 WT1      9023     TIP3     OH2      OT      -0.834000       15.9994           0
     27383 WT1      9023     TIP3     H1       HT       0.417000        1.0080           0
     27384 WT1      9023     TIP3     H2       HT       0.417000        1.0080           0
     27385 WT1      9024     TIP3     OH2      OT      -0.834000       15.9994           0
     27386 WT1      9024     TIP3     H1       HT       0.417000        1.0080           0
     27387 WT1      9024     TIP3     H2       HT       0.417000        1.0080           0
     27388 WT1      9025     TIP3     OH2      OT      -0.834000       15.9994           0
     27389 WT1      9025     TIP3     H1       HT       0.417000        1.0080           0
     27390 WT1      9025     TIP3     H2       HT       0.417000        1.0080           0
     27391 WT1      9026     TIP3     OH2      OT      -0.834000       15.9994           0
     27392 WT1      9026     TIP3     H1       HT       0.417000        1.0080           0
     27393 WT1      9026     TIP3     H2       HT       0.417000        1.0080           0
     27394 WT1      9027     TIP3     OH2      OT      -0.834000       15.9994           0
     27395 WT1      9027     TIP3     H1       HT       0.417000        1.0080           0
     27396 WT1      9027     TIP3     H2       HT       0.417000        1.0080           0
     27397 WT1      9028     TIP3     OH2      OT      -0.834000       15.9994           0
     27398 WT1      9028     TIP3     H1       HT       0.417000        1.0080           0
     27399 WT1      9028     TIP3     H2       HT       0.417000        1.0080           0
     27400 WT1      9029     TIP3     OH2      OT      -0.834000       15.9994           0
     27401 WT1      9029     TIP3     H1       HT       0.417000        1.0080           0
     27402 WT1      9029     TIP3     H2       HT       0.417000        1.0080           0
     27403 WT1      9030     TIP3     OH2      OT      -0.834000       15.9994           0
     27404 WT1      9030     TIP3     H1       HT       0.417000        1.0080           0
     27405 WT1      9030     TIP3     H2       HT       0.417000        1.0080           0
     27406 WT1      9032     TIP3     OH2      OT      -0.834000       15.9994           0
     27407 WT1      9032     TIP3     H1       HT       0.417000        1.0080           0
     27408 WT1      9032     TIP3     H2       HT       0.417000        1.0080           0
     27409 WT1      9033     TIP3     OH2      OT      -0.834000       15.9994           0
     27410 WT1      9033     TIP3     H1       HT       0.417000        1.0080           0
     27411 WT1      9033     TIP3     H2       HT       0.417000        1.0080           0
     27412 WT1      9034     TIP3     OH2      OT      -0.834000       15.9994           0
     27413 WT1      9034     TIP3     H1       HT       0.417000        1.0080           0
     27414 WT1      9034     TIP3     H2       HT       0.417000        1.0080           0
     27415 WT1      9035     TIP3     OH2      OT      -0.834000       15.9994           0
     27416 WT1      9035     TIP3     H1       HT       0.417000        1.0080           0
     27417 WT1      9035     TIP3     H2       HT       0.417000        1.0080           0
     27418 WT1      9036     TIP3     OH2      OT      -0.834000       15.9994           0
     27419 WT1      9036     TIP3     H1       HT       0.417000        1.0080           0
     27420 WT1      9036     TIP3     H2       HT       0.417000        1.0080           0
     27421 WT1      9037     TIP3     OH2      OT      -0.834000       15.9994           0
     27422 WT1      9037     TIP3     H1       HT       0.417000        1.0080           0
     27423 WT1      9037     TIP3     H2       HT       0.417000        1.0080           0
     27424 WT1      9038     TIP3     OH2      OT      -0.834000       15.9994           0
     27425 WT1      9038     TIP3     H1       HT       0.417000        1.0080           0
     27426 WT1      9038     TIP3     H2       HT       0.417000        1.0080           0
     27427 WT1      9039     TIP3     OH2      OT      -0.834000       15.9994           0
     27428 WT1      9039     TIP3     H1       HT       0.417000        1.0080           0
     27429 WT1      9039     TIP3     H2       HT       0.417000        1.0080           0
     27430 WT1      9040     TIP3     OH2      OT      -0.834000       15.9994           0
     27431 WT1      9040     TIP3     H1       HT       0.417000        1.0080           0
     27432 WT1      9040     TIP3     H2       HT       0.417000        1.0080           0
     27433 WT1      9041     TIP3     OH2      OT      -0.834000       15.9994           0
     27434 WT1      9041     TIP3     H1       HT       0.417000        1.0080           0
     27435 WT1      9041     TIP3     H2       HT       0.417000        1.0080           0
     27436 WT1      9042     TIP3     OH2      OT      -0.834000       15.9994           0
     27437 WT1      9042     TIP3     H1       HT       0.417000        1.0080           0
     27438 WT1      9042     TIP3     H2       HT       0.417000        1.0080           0
     27439 WT1      9043     TIP3     OH2      OT      -0.834000       15.9994           0
     27440 WT1      9043     TIP3     H1       HT       0.417000        1.0080           0
     27441 WT1      9043     TIP3     H2       HT       0.417000        1.0080           0
     27442 WT1      9044     TIP3     OH2      OT      -0.834000       15.9994           0
     27443 WT1      9044     TIP3     H1       HT       0.417000        1.0080           0
     27444 WT1      9044     TIP3     H2       HT       0.417000        1.0080           0
     27445 WT1      9045     TIP3     OH2      OT      -0.834000       15.9994           0
     27446 WT1      9045     TIP3     H1       HT       0.417000        1.0080           0
     27447 WT1      9045     TIP3     H2       HT       0.417000        1.0080           0
     27448 WT1      9046     TIP3     OH2      OT      -0.834000       15.9994           0
     27449 WT1      9046     TIP3     H1       HT       0.417000        1.0080           0
     27450 WT1      9046     TIP3     H2       HT       0.417000        1.0080           0
     27451 WT1      9047     TIP3     OH2      OT      -0.834000       15.9994           0
     27452 WT1      9047     TIP3     H1       HT       0.417000        1.0080           0
     27453 WT1      9047     TIP3     H2       HT       0.417000        1.0080           0
     27454 WT1      9048     TIP3     OH2      OT      -0.834000       15.9994           0
     27455 WT1      9048     TIP3     H1       HT       0.417000        1.0080           0
     27456 WT1      9048     TIP3     H2       HT       0.417000        1.0080           0
     27457 WT1      9049     TIP3     OH2      OT      -0.834000       15.9994           0
     27458 WT1      9049     TIP3     H1       HT       0.417000        1.0080           0
     27459 WT1      9049     TIP3     H2       HT       0.417000        1.0080           0
     27460 WT1      9050     TIP3     OH2      OT      -0.834000       15.9994           0
     27461 WT1      9050     TIP3     H1       HT       0.417000        1.0080           0
     27462 WT1      9050     TIP3     H2       HT       0.417000        1.0080           0
     27463 WT1      9051     TIP3     OH2      OT      -0.834000       15.9994           0
     27464 WT1      9051     TIP3     H1       HT       0.417000        1.0080           0
     27465 WT1      9051     TIP3     H2       HT       0.417000        1.0080           0
     27466 WT1      9052     TIP3     OH2      OT      -0.834000       15.9994           0
     27467 WT1      9052     TIP3     H1       HT       0.417000        1.0080           0
     27468 WT1      9052     TIP3     H2       HT       0.417000        1.0080           0
     27469 WT1      9053     TIP3     OH2      OT      -0.834000       15.9994           0
     27470 WT1      9053     TIP3     H1       HT       0.417000        1.0080           0
     27471 WT1      9053     TIP3     H2       HT       0.417000        1.0080           0
     27472 WT1      9054     TIP3     OH2      OT      -0.834000       15.9994           0
     27473 WT1      9054     TIP3     H1       HT       0.417000        1.0080           0
     27474 WT1      9054     TIP3     H2       HT       0.417000        1.0080           0
     27475 WT1      9055     TIP3     OH2      OT      -0.834000       15.9994           0
     27476 WT1      9055     TIP3     H1       HT       0.417000        1.0080           0
     27477 WT1      9055     TIP3     H2       HT       0.417000        1.0080           0
     27478 WT1      9056     TIP3     OH2      OT      -0.834000       15.9994           0
     27479 WT1      9056     TIP3     H1       HT       0.417000        1.0080           0
     27480 WT1      9056     TIP3     H2       HT       0.417000        1.0080           0
     27481 WT1      9057     TIP3     OH2      OT      -0.834000       15.9994           0
     27482 WT1      9057     TIP3     H1       HT       0.417000        1.0080           0
     27483 WT1      9057     TIP3     H2       HT       0.417000        1.0080           0
     27484 WT1      9058     TIP3     OH2      OT      -0.834000       15.9994           0
     27485 WT1      9058     TIP3     H1       HT       0.417000        1.0080           0
     27486 WT1      9058     TIP3     H2       HT       0.417000        1.0080           0
     27487 WT1      9059     TIP3     OH2      OT      -0.834000       15.9994           0
     27488 WT1      9059     TIP3     H1       HT       0.417000        1.0080           0
     27489 WT1      9059     TIP3     H2       HT       0.417000        1.0080           0
     27490 WT1      9060     TIP3     OH2      OT      -0.834000       15.9994           0
     27491 WT1      9060     TIP3     H1       HT       0.417000        1.0080           0
     27492 WT1      9060     TIP3     H2       HT       0.417000        1.0080           0
     27493 WT1      9061     TIP3     OH2      OT      -0.834000       15.9994           0
     27494 WT1      9061     TIP3     H1       HT       0.417000        1.0080           0
     27495 WT1      9061     TIP3     H2       HT       0.417000        1.0080           0
     27496 WT1      9062     TIP3     OH2      OT      -0.834000       15.9994           0
     27497 WT1      9062     TIP3     H1       HT       0.417000        1.0080           0
     27498 WT1      9062     TIP3     H2       HT       0.417000        1.0080           0
     27499 WT1      9063     TIP3     OH2      OT      -0.834000       15.9994           0
     27500 WT1      9063     TIP3     H1       HT       0.417000        1.0080           0
     27501 WT1      9063     TIP3     H2       HT       0.417000        1.0080           0
     27502 WT1      9066     TIP3     OH2      OT      -0.834000       15.9994           0
     27503 WT1      9066     TIP3     H1       HT       0.417000        1.0080           0
     27504 WT1      9066     TIP3     H2       HT       0.417000        1.0080           0
     27505 WT1      9067     TIP3     OH2      OT      -0.834000       15.9994           0
     27506 WT1      9067     TIP3     H1       HT       0.417000        1.0080           0
     27507 WT1      9067     TIP3     H2       HT       0.417000        1.0080           0
     27508 WT1      9069     TIP3     OH2      OT      -0.834000       15.9994           0
     27509 WT1      9069     TIP3     H1       HT       0.417000        1.0080           0
     27510 WT1      9069     TIP3     H2       HT       0.417000        1.0080           0
     27511 WT1      9070     TIP3     OH2      OT      -0.834000       15.9994           0
     27512 WT1      9070     TIP3     H1       HT       0.417000        1.0080           0
     27513 WT1      9070     TIP3     H2       HT       0.417000        1.0080           0
     27514 WT1      9071     TIP3     OH2      OT      -0.834000       15.9994           0
     27515 WT1      9071     TIP3     H1       HT       0.417000        1.0080           0
     27516 WT1      9071     TIP3     H2       HT       0.417000        1.0080           0
     27517 WT1      9072     TIP3     OH2      OT      -0.834000       15.9994           0
     27518 WT1      9072     TIP3     H1       HT       0.417000        1.0080           0
     27519 WT1      9072     TIP3     H2       HT       0.417000        1.0080           0
     27520 WT1      9073     TIP3     OH2      OT      -0.834000       15.9994           0
     27521 WT1      9073     TIP3     H1       HT       0.417000        1.0080           0
     27522 WT1      9073     TIP3     H2       HT       0.417000        1.0080           0
     27523 WT1      9074     TIP3     OH2      OT      -0.834000       15.9994           0
     27524 WT1      9074     TIP3     H1       HT       0.417000        1.0080           0
     27525 WT1      9074     TIP3     H2       HT       0.417000        1.0080           0
     27526 WT1      9075     TIP3     OH2      OT      -0.834000       15.9994           0
     27527 WT1      9075     TIP3     H1       HT       0.417000        1.0080           0
     27528 WT1      9075     TIP3     H2       HT       0.417000        1.0080           0
     27529 WT1      9076     TIP3     OH2      OT      -0.834000       15.9994           0
     27530 WT1      9076     TIP3     H1       HT       0.417000        1.0080           0
     27531 WT1      9076     TIP3     H2       HT       0.417000        1.0080           0
     27532 WT1      9078     TIP3     OH2      OT      -0.834000       15.9994           0
     27533 WT1      9078     TIP3     H1       HT       0.417000        1.0080           0
     27534 WT1      9078     TIP3     H2       HT       0.417000        1.0080           0
     27535 WT1      9079     TIP3     OH2      OT      -0.834000       15.9994           0
     27536 WT1      9079     TIP3     H1       HT       0.417000        1.0080           0
     27537 WT1      9079     TIP3     H2       HT       0.417000        1.0080           0
     27538 WT1      9080     TIP3     OH2      OT      -0.834000       15.9994           0
     27539 WT1      9080     TIP3     H1       HT       0.417000        1.0080           0
     27540 WT1      9080     TIP3     H2       HT       0.417000        1.0080           0
     27541 WT1      9081     TIP3     OH2      OT      -0.834000       15.9994           0
     27542 WT1      9081     TIP3     H1       HT       0.417000        1.0080           0
     27543 WT1      9081     TIP3     H2       HT       0.417000        1.0080           0
     27544 WT1      9082     TIP3     OH2      OT      -0.834000       15.9994           0
     27545 WT1      9082     TIP3     H1       HT       0.417000        1.0080           0
     27546 WT1      9082     TIP3     H2       HT       0.417000        1.0080           0
     27547 WT1      9083     TIP3     OH2      OT      -0.834000       15.9994           0
     27548 WT1      9083     TIP3     H1       HT       0.417000        1.0080           0
     27549 WT1      9083     TIP3     H2       HT       0.417000        1.0080           0
     27550 WT1      9084     TIP3     OH2      OT      -0.834000       15.9994           0
     27551 WT1      9084     TIP3     H1       HT       0.417000        1.0080           0
     27552 WT1      9084     TIP3     H2       HT       0.417000        1.0080           0
     27553 WT1      9085     TIP3     OH2      OT      -0.834000       15.9994           0
     27554 WT1      9085     TIP3     H1       HT       0.417000        1.0080           0
     27555 WT1      9085     TIP3     H2       HT       0.417000        1.0080           0
     27556 WT1      9086     TIP3     OH2      OT      -0.834000       15.9994           0
     27557 WT1      9086     TIP3     H1       HT       0.417000        1.0080           0
     27558 WT1      9086     TIP3     H2       HT       0.417000        1.0080           0
     27559 WT1      9087     TIP3     OH2      OT      -0.834000       15.9994           0
     27560 WT1      9087     TIP3     H1       HT       0.417000        1.0080           0
     27561 WT1      9087     TIP3     H2       HT       0.417000        1.0080           0
     27562 WT1      9088     TIP3     OH2      OT      -0.834000       15.9994           0
     27563 WT1      9088     TIP3     H1       HT       0.417000        1.0080           0
     27564 WT1      9088     TIP3     H2       HT       0.417000        1.0080           0
     27565 WT1      9089     TIP3     OH2      OT      -0.834000       15.9994           0
     27566 WT1      9089     TIP3     H1       HT       0.417000        1.0080           0
     27567 WT1      9089     TIP3     H2       HT       0.417000        1.0080           0
     27568 WT1      9090     TIP3     OH2      OT      -0.834000       15.9994           0
     27569 WT1      9090     TIP3     H1       HT       0.417000        1.0080           0
     27570 WT1      9090     TIP3     H2       HT       0.417000        1.0080           0
     27571 WT1      9091     TIP3     OH2      OT      -0.834000       15.9994           0
     27572 WT1      9091     TIP3     H1       HT       0.417000        1.0080           0
     27573 WT1      9091     TIP3     H2       HT       0.417000        1.0080           0
     27574 WT1      9092     TIP3     OH2      OT      -0.834000       15.9994           0
     27575 WT1      9092     TIP3     H1       HT       0.417000        1.0080           0
     27576 WT1      9092     TIP3     H2       HT       0.417000        1.0080           0
     27577 WT1      9093     TIP3     OH2      OT      -0.834000       15.9994           0
     27578 WT1      9093     TIP3     H1       HT       0.417000        1.0080           0
     27579 WT1      9093     TIP3     H2       HT       0.417000        1.0080           0
     27580 WT1      9094     TIP3     OH2      OT      -0.834000       15.9994           0
     27581 WT1      9094     TIP3     H1       HT       0.417000        1.0080           0
     27582 WT1      9094     TIP3     H2       HT       0.417000        1.0080           0
     27583 WT1      9095     TIP3     OH2      OT      -0.834000       15.9994           0
     27584 WT1      9095     TIP3     H1       HT       0.417000        1.0080           0
     27585 WT1      9095     TIP3     H2       HT       0.417000        1.0080           0
     27586 WT1      9096     TIP3     OH2      OT      -0.834000       15.9994           0
     27587 WT1      9096     TIP3     H1       HT       0.417000        1.0080           0
     27588 WT1      9096     TIP3     H2       HT       0.417000        1.0080           0
     27589 WT1      9097     TIP3     OH2      OT      -0.834000       15.9994           0
     27590 WT1      9097     TIP3     H1       HT       0.417000        1.0080           0
     27591 WT1      9097     TIP3     H2       HT       0.417000        1.0080           0
     27592 WT1      9098     TIP3     OH2      OT      -0.834000       15.9994           0
     27593 WT1      9098     TIP3     H1       HT       0.417000        1.0080           0
     27594 WT1      9098     TIP3     H2       HT       0.417000        1.0080           0
     27595 WT1      9099     TIP3     OH2      OT      -0.834000       15.9994           0
     27596 WT1      9099     TIP3     H1       HT       0.417000        1.0080           0
     27597 WT1      9099     TIP3     H2       HT       0.417000        1.0080           0
     27598 WT1      9100     TIP3     OH2      OT      -0.834000       15.9994           0
     27599 WT1      9100     TIP3     H1       HT       0.417000        1.0080           0
     27600 WT1      9100     TIP3     H2       HT       0.417000        1.0080           0
     27601 WT1      9101     TIP3     OH2      OT      -0.834000       15.9994           0
     27602 WT1      9101     TIP3     H1       HT       0.417000        1.0080           0
     27603 WT1      9101     TIP3     H2       HT       0.417000        1.0080           0
     27604 WT1      9102     TIP3     OH2      OT      -0.834000       15.9994           0
     27605 WT1      9102     TIP3     H1       HT       0.417000        1.0080           0
     27606 WT1      9102     TIP3     H2       HT       0.417000        1.0080           0
     27607 WT1      9103     TIP3     OH2      OT      -0.834000       15.9994           0
     27608 WT1      9103     TIP3     H1       HT       0.417000        1.0080           0
     27609 WT1      9103     TIP3     H2       HT       0.417000        1.0080           0
     27610 WT1      9104     TIP3     OH2      OT      -0.834000       15.9994           0
     27611 WT1      9104     TIP3     H1       HT       0.417000        1.0080           0
     27612 WT1      9104     TIP3     H2       HT       0.417000        1.0080           0
     27613 WT1      9105     TIP3     OH2      OT      -0.834000       15.9994           0
     27614 WT1      9105     TIP3     H1       HT       0.417000        1.0080           0
     27615 WT1      9105     TIP3     H2       HT       0.417000        1.0080           0
     27616 WT1      9106     TIP3     OH2      OT      -0.834000       15.9994           0
     27617 WT1      9106     TIP3     H1       HT       0.417000        1.0080           0
     27618 WT1      9106     TIP3     H2       HT       0.417000        1.0080           0
     27619 WT1      9107     TIP3     OH2      OT      -0.834000       15.9994           0
     27620 WT1      9107     TIP3     H1       HT       0.417000        1.0080           0
     27621 WT1      9107     TIP3     H2       HT       0.417000        1.0080           0
     27622 WT1      9108     TIP3     OH2      OT      -0.834000       15.9994           0
     27623 WT1      9108     TIP3     H1       HT       0.417000        1.0080           0
     27624 WT1      9108     TIP3     H2       HT       0.417000        1.0080           0
     27625 WT1      9109     TIP3     OH2      OT      -0.834000       15.9994           0
     27626 WT1      9109     TIP3     H1       HT       0.417000        1.0080           0
     27627 WT1      9109     TIP3     H2       HT       0.417000        1.0080           0
     27628 WT1      9110     TIP3     OH2      OT      -0.834000       15.9994           0
     27629 WT1      9110     TIP3     H1       HT       0.417000        1.0080           0
     27630 WT1      9110     TIP3     H2       HT       0.417000        1.0080           0
     27631 WT1      9111     TIP3     OH2      OT      -0.834000       15.9994           0
     27632 WT1      9111     TIP3     H1       HT       0.417000        1.0080           0
     27633 WT1      9111     TIP3     H2       HT       0.417000        1.0080           0
     27634 WT1      9112     TIP3     OH2      OT      -0.834000       15.9994           0
     27635 WT1      9112     TIP3     H1       HT       0.417000        1.0080           0
     27636 WT1      9112     TIP3     H2       HT       0.417000        1.0080           0
     27637 WT1      9113     TIP3     OH2      OT      -0.834000       15.9994           0
     27638 WT1      9113     TIP3     H1       HT       0.417000        1.0080           0
     27639 WT1      9113     TIP3     H2       HT       0.417000        1.0080           0
     27640 WT1      9114     TIP3     OH2      OT      -0.834000       15.9994           0
     27641 WT1      9114     TIP3     H1       HT       0.417000        1.0080           0
     27642 WT1      9114     TIP3     H2       HT       0.417000        1.0080           0
     27643 WT1      9115     TIP3     OH2      OT      -0.834000       15.9994           0
     27644 WT1      9115     TIP3     H1       HT       0.417000        1.0080           0
     27645 WT1      9115     TIP3     H2       HT       0.417000        1.0080           0
     27646 WT1      9116     TIP3     OH2      OT      -0.834000       15.9994           0
     27647 WT1      9116     TIP3     H1       HT       0.417000        1.0080           0
     27648 WT1      9116     TIP3     H2       HT       0.417000        1.0080           0
     27649 WT1      9117     TIP3     OH2      OT      -0.834000       15.9994           0
     27650 WT1      9117     TIP3     H1       HT       0.417000        1.0080           0
     27651 WT1      9117     TIP3     H2       HT       0.417000        1.0080           0
     27652 WT1      9118     TIP3     OH2      OT      -0.834000       15.9994           0
     27653 WT1      9118     TIP3     H1       HT       0.417000        1.0080           0
     27654 WT1      9118     TIP3     H2       HT       0.417000        1.0080           0
     27655 WT1      9119     TIP3     OH2      OT      -0.834000       15.9994           0
     27656 WT1      9119     TIP3     H1       HT       0.417000        1.0080           0
     27657 WT1      9119     TIP3     H2       HT       0.417000        1.0080           0
     27658 WT1      9120     TIP3     OH2      OT      -0.834000       15.9994           0
     27659 WT1      9120     TIP3     H1       HT       0.417000        1.0080           0
     27660 WT1      9120     TIP3     H2       HT       0.417000        1.0080           0
     27661 WT1      9121     TIP3     OH2      OT      -0.834000       15.9994           0
     27662 WT1      9121     TIP3     H1       HT       0.417000        1.0080           0
     27663 WT1      9121     TIP3     H2       HT       0.417000        1.0080           0
     27664 WT1      9122     TIP3     OH2      OT      -0.834000       15.9994           0
     27665 WT1      9122     TIP3     H1       HT       0.417000        1.0080           0
     27666 WT1      9122     TIP3     H2       HT       0.417000        1.0080           0
     27667 WT1      9123     TIP3     OH2      OT      -0.834000       15.9994           0
     27668 WT1      9123     TIP3     H1       HT       0.417000        1.0080           0
     27669 WT1      9123     TIP3     H2       HT       0.417000        1.0080           0
     27670 WT1      9124     TIP3     OH2      OT      -0.834000       15.9994           0
     27671 WT1      9124     TIP3     H1       HT       0.417000        1.0080           0
     27672 WT1      9124     TIP3     H2       HT       0.417000        1.0080           0
     27673 WT1      9125     TIP3     OH2      OT      -0.834000       15.9994           0
     27674 WT1      9125     TIP3     H1       HT       0.417000        1.0080           0
     27675 WT1      9125     TIP3     H2       HT       0.417000        1.0080           0
     27676 WT1      9126     TIP3     OH2      OT      -0.834000       15.9994           0
     27677 WT1      9126     TIP3     H1       HT       0.417000        1.0080           0
     27678 WT1      9126     TIP3     H2       HT       0.417000        1.0080           0
     27679 WT1      9127     TIP3     OH2      OT      -0.834000       15.9994           0
     27680 WT1      9127     TIP3     H1       HT       0.417000        1.0080           0
     27681 WT1      9127     TIP3     H2       HT       0.417000        1.0080           0
     27682 WT1      9128     TIP3     OH2      OT      -0.834000       15.9994           0
     27683 WT1      9128     TIP3     H1       HT       0.417000        1.0080           0
     27684 WT1      9128     TIP3     H2       HT       0.417000        1.0080           0
     27685 WT1      9129     TIP3     OH2      OT      -0.834000       15.9994           0
     27686 WT1      9129     TIP3     H1       HT       0.417000        1.0080           0
     27687 WT1      9129     TIP3     H2       HT       0.417000        1.0080           0
     27688 WT1      9130     TIP3     OH2      OT      -0.834000       15.9994           0
     27689 WT1      9130     TIP3     H1       HT       0.417000        1.0080           0
     27690 WT1      9130     TIP3     H2       HT       0.417000        1.0080           0
     27691 WT1      9131     TIP3     OH2      OT      -0.834000       15.9994           0
     27692 WT1      9131     TIP3     H1       HT       0.417000        1.0080           0
     27693 WT1      9131     TIP3     H2       HT       0.417000        1.0080           0
     27694 WT1      9132     TIP3     OH2      OT      -0.834000       15.9994           0
     27695 WT1      9132     TIP3     H1       HT       0.417000        1.0080           0
     27696 WT1      9132     TIP3     H2       HT       0.417000        1.0080           0
     27697 WT1      9134     TIP3     OH2      OT      -0.834000       15.9994           0
     27698 WT1      9134     TIP3     H1       HT       0.417000        1.0080           0
     27699 WT1      9134     TIP3     H2       HT       0.417000        1.0080           0
     27700 WT1      9135     TIP3     OH2      OT      -0.834000       15.9994           0
     27701 WT1      9135     TIP3     H1       HT       0.417000        1.0080           0
     27702 WT1      9135     TIP3     H2       HT       0.417000        1.0080           0
     27703 WT1      9136     TIP3     OH2      OT      -0.834000       15.9994           0
     27704 WT1      9136     TIP3     H1       HT       0.417000        1.0080           0
     27705 WT1      9136     TIP3     H2       HT       0.417000        1.0080           0
     27706 WT1      9138     TIP3     OH2      OT      -0.834000       15.9994           0
     27707 WT1      9138     TIP3     H1       HT       0.417000        1.0080           0
     27708 WT1      9138     TIP3     H2       HT       0.417000        1.0080           0
     27709 WT1      9139     TIP3     OH2      OT      -0.834000       15.9994           0
     27710 WT1      9139     TIP3     H1       HT       0.417000        1.0080           0
     27711 WT1      9139     TIP3     H2       HT       0.417000        1.0080           0
     27712 WT1      9140     TIP3     OH2      OT      -0.834000       15.9994           0
     27713 WT1      9140     TIP3     H1       HT       0.417000        1.0080           0
     27714 WT1      9140     TIP3     H2       HT       0.417000        1.0080           0
     27715 WT1      9141     TIP3     OH2      OT      -0.834000       15.9994           0
     27716 WT1      9141     TIP3     H1       HT       0.417000        1.0080           0
     27717 WT1      9141     TIP3     H2       HT       0.417000        1.0080           0
     27718 WT1      9142     TIP3     OH2      OT      -0.834000       15.9994           0
     27719 WT1      9142     TIP3     H1       HT       0.417000        1.0080           0
     27720 WT1      9142     TIP3     H2       HT       0.417000        1.0080           0
     27721 WT1      9144     TIP3     OH2      OT      -0.834000       15.9994           0
     27722 WT1      9144     TIP3     H1       HT       0.417000        1.0080           0
     27723 WT1      9144     TIP3     H2       HT       0.417000        1.0080           0
     27724 WT1      9145     TIP3     OH2      OT      -0.834000       15.9994           0
     27725 WT1      9145     TIP3     H1       HT       0.417000        1.0080           0
     27726 WT1      9145     TIP3     H2       HT       0.417000        1.0080           0
     27727 WT1      9146     TIP3     OH2      OT      -0.834000       15.9994           0
     27728 WT1      9146     TIP3     H1       HT       0.417000        1.0080           0
     27729 WT1      9146     TIP3     H2       HT       0.417000        1.0080           0
     27730 WT1      9147     TIP3     OH2      OT      -0.834000       15.9994           0
     27731 WT1      9147     TIP3     H1       HT       0.417000        1.0080           0
     27732 WT1      9147     TIP3     H2       HT       0.417000        1.0080           0
     27733 WT1      9148     TIP3     OH2      OT      -0.834000       15.9994           0
     27734 WT1      9148     TIP3     H1       HT       0.417000        1.0080           0
     27735 WT1      9148     TIP3     H2       HT       0.417000        1.0080           0
     27736 WT1      9149     TIP3     OH2      OT      -0.834000       15.9994           0
     27737 WT1      9149     TIP3     H1       HT       0.417000        1.0080           0
     27738 WT1      9149     TIP3     H2       HT       0.417000        1.0080           0
     27739 WT1      9150     TIP3     OH2      OT      -0.834000       15.9994           0
     27740 WT1      9150     TIP3     H1       HT       0.417000        1.0080           0
     27741 WT1      9150     TIP3     H2       HT       0.417000        1.0080           0
     27742 WT1      9152     TIP3     OH2      OT      -0.834000       15.9994           0
     27743 WT1      9152     TIP3     H1       HT       0.417000        1.0080           0
     27744 WT1      9152     TIP3     H2       HT       0.417000        1.0080           0
     27745 WT1      9153     TIP3     OH2      OT      -0.834000       15.9994           0
     27746 WT1      9153     TIP3     H1       HT       0.417000        1.0080           0
     27747 WT1      9153     TIP3     H2       HT       0.417000        1.0080           0
     27748 WT1      9154     TIP3     OH2      OT      -0.834000       15.9994           0
     27749 WT1      9154     TIP3     H1       HT       0.417000        1.0080           0
     27750 WT1      9154     TIP3     H2       HT       0.417000        1.0080           0
     27751 WT1      9155     TIP3     OH2      OT      -0.834000       15.9994           0
     27752 WT1      9155     TIP3     H1       HT       0.417000        1.0080           0
     27753 WT1      9155     TIP3     H2       HT       0.417000        1.0080           0
     27754 WT1      9156     TIP3     OH2      OT      -0.834000       15.9994           0
     27755 WT1      9156     TIP3     H1       HT       0.417000        1.0080           0
     27756 WT1      9156     TIP3     H2       HT       0.417000        1.0080           0
     27757 WT1      9157     TIP3     OH2      OT      -0.834000       15.9994           0
     27758 WT1      9157     TIP3     H1       HT       0.417000        1.0080           0
     27759 WT1      9157     TIP3     H2       HT       0.417000        1.0080           0
     27760 WT1      9158     TIP3     OH2      OT      -0.834000       15.9994           0
     27761 WT1      9158     TIP3     H1       HT       0.417000        1.0080           0
     27762 WT1      9158     TIP3     H2       HT       0.417000        1.0080           0
     27763 WT1      9159     TIP3     OH2      OT      -0.834000       15.9994           0
     27764 WT1      9159     TIP3     H1       HT       0.417000        1.0080           0
     27765 WT1      9159     TIP3     H2       HT       0.417000        1.0080           0
     27766 WT1      9160     TIP3     OH2      OT      -0.834000       15.9994           0
     27767 WT1      9160     TIP3     H1       HT       0.417000        1.0080           0
     27768 WT1      9160     TIP3     H2       HT       0.417000        1.0080           0
     27769 WT1      9161     TIP3     OH2      OT      -0.834000       15.9994           0
     27770 WT1      9161     TIP3     H1       HT       0.417000        1.0080           0
     27771 WT1      9161     TIP3     H2       HT       0.417000        1.0080           0
     27772 WT1      9162     TIP3     OH2      OT      -0.834000       15.9994           0
     27773 WT1      9162     TIP3     H1       HT       0.417000        1.0080           0
     27774 WT1      9162     TIP3     H2       HT       0.417000        1.0080           0
     27775 WT1      9163     TIP3     OH2      OT      -0.834000       15.9994           0
     27776 WT1      9163     TIP3     H1       HT       0.417000        1.0080           0
     27777 WT1      9163     TIP3     H2       HT       0.417000        1.0080           0
     27778 WT1      9164     TIP3     OH2      OT      -0.834000       15.9994           0
     27779 WT1      9164     TIP3     H1       HT       0.417000        1.0080           0
     27780 WT1      9164     TIP3     H2       HT       0.417000        1.0080           0
     27781 WT1      9165     TIP3     OH2      OT      -0.834000       15.9994           0
     27782 WT1      9165     TIP3     H1       HT       0.417000        1.0080           0
     27783 WT1      9165     TIP3     H2       HT       0.417000        1.0080           0
     27784 WT1      9166     TIP3     OH2      OT      -0.834000       15.9994           0
     27785 WT1      9166     TIP3     H1       HT       0.417000        1.0080           0
     27786 WT1      9166     TIP3     H2       HT       0.417000        1.0080           0
     27787 WT1      9167     TIP3     OH2      OT      -0.834000       15.9994           0
     27788 WT1      9167     TIP3     H1       HT       0.417000        1.0080           0
     27789 WT1      9167     TIP3     H2       HT       0.417000        1.0080           0
     27790 WT1      9168     TIP3     OH2      OT      -0.834000       15.9994           0
     27791 WT1      9168     TIP3     H1       HT       0.417000        1.0080           0
     27792 WT1      9168     TIP3     H2       HT       0.417000        1.0080           0
     27793 WT1      9169     TIP3     OH2      OT      -0.834000       15.9994           0
     27794 WT1      9169     TIP3     H1       HT       0.417000        1.0080           0
     27795 WT1      9169     TIP3     H2       HT       0.417000        1.0080           0
     27796 WT1      9170     TIP3     OH2      OT      -0.834000       15.9994           0
     27797 WT1      9170     TIP3     H1       HT       0.417000        1.0080           0
     27798 WT1      9170     TIP3     H2       HT       0.417000        1.0080           0
     27799 WT1      9171     TIP3     OH2      OT      -0.834000       15.9994           0
     27800 WT1      9171     TIP3     H1       HT       0.417000        1.0080           0
     27801 WT1      9171     TIP3     H2       HT       0.417000        1.0080           0
     27802 WT1      9172     TIP3     OH2      OT      -0.834000       15.9994           0
     27803 WT1      9172     TIP3     H1       HT       0.417000        1.0080           0
     27804 WT1      9172     TIP3     H2       HT       0.417000        1.0080           0
     27805 WT1      9173     TIP3     OH2      OT      -0.834000       15.9994           0
     27806 WT1      9173     TIP3     H1       HT       0.417000        1.0080           0
     27807 WT1      9173     TIP3     H2       HT       0.417000        1.0080           0
     27808 WT1      9174     TIP3     OH2      OT      -0.834000       15.9994           0
     27809 WT1      9174     TIP3     H1       HT       0.417000        1.0080           0
     27810 WT1      9174     TIP3     H2       HT       0.417000        1.0080           0
     27811 WT1      9175     TIP3     OH2      OT      -0.834000       15.9994           0
     27812 WT1      9175     TIP3     H1       HT       0.417000        1.0080           0
     27813 WT1      9175     TIP3     H2       HT       0.417000        1.0080           0
     27814 WT1      9176     TIP3     OH2      OT      -0.834000       15.9994           0
     27815 WT1      9176     TIP3     H1       HT       0.417000        1.0080           0
     27816 WT1      9176     TIP3     H2       HT       0.417000        1.0080           0
     27817 WT1      9177     TIP3     OH2      OT      -0.834000       15.9994           0
     27818 WT1      9177     TIP3     H1       HT       0.417000        1.0080           0
     27819 WT1      9177     TIP3     H2       HT       0.417000        1.0080           0
     27820 WT1      9178     TIP3     OH2      OT      -0.834000       15.9994           0
     27821 WT1      9178     TIP3     H1       HT       0.417000        1.0080           0
     27822 WT1      9178     TIP3     H2       HT       0.417000        1.0080           0
     27823 WT1      9179     TIP3     OH2      OT      -0.834000       15.9994           0
     27824 WT1      9179     TIP3     H1       HT       0.417000        1.0080           0
     27825 WT1      9179     TIP3     H2       HT       0.417000        1.0080           0
     27826 WT1      9180     TIP3     OH2      OT      -0.834000       15.9994           0
     27827 WT1      9180     TIP3     H1       HT       0.417000        1.0080           0
     27828 WT1      9180     TIP3     H2       HT       0.417000        1.0080           0
     27829 WT1      9181     TIP3     OH2      OT      -0.834000       15.9994           0
     27830 WT1      9181     TIP3     H1       HT       0.417000        1.0080           0
     27831 WT1      9181     TIP3     H2       HT       0.417000        1.0080           0
     27832 WT1      9182     TIP3     OH2      OT      -0.834000       15.9994           0
     27833 WT1      9182     TIP3     H1       HT       0.417000        1.0080           0
     27834 WT1      9182     TIP3     H2       HT       0.417000        1.0080           0
     27835 WT1      9183     TIP3     OH2      OT      -0.834000       15.9994           0
     27836 WT1      9183     TIP3     H1       HT       0.417000        1.0080           0
     27837 WT1      9183     TIP3     H2       HT       0.417000        1.0080           0
     27838 WT1      9184     TIP3     OH2      OT      -0.834000       15.9994           0
     27839 WT1      9184     TIP3     H1       HT       0.417000        1.0080           0
     27840 WT1      9184     TIP3     H2       HT       0.417000        1.0080           0
     27841 WT1      9185     TIP3     OH2      OT      -0.834000       15.9994           0
     27842 WT1      9185     TIP3     H1       HT       0.417000        1.0080           0
     27843 WT1      9185     TIP3     H2       HT       0.417000        1.0080           0
     27844 WT1      9186     TIP3     OH2      OT      -0.834000       15.9994           0
     27845 WT1      9186     TIP3     H1       HT       0.417000        1.0080           0
     27846 WT1      9186     TIP3     H2       HT       0.417000        1.0080           0
     27847 WT1      9187     TIP3     OH2      OT      -0.834000       15.9994           0
     27848 WT1      9187     TIP3     H1       HT       0.417000        1.0080           0
     27849 WT1      9187     TIP3     H2       HT       0.417000        1.0080           0
     27850 WT1      9188     TIP3     OH2      OT      -0.834000       15.9994           0
     27851 WT1      9188     TIP3     H1       HT       0.417000        1.0080           0
     27852 WT1      9188     TIP3     H2       HT       0.417000        1.0080           0
     27853 WT1      9189     TIP3     OH2      OT      -0.834000       15.9994           0
     27854 WT1      9189     TIP3     H1       HT       0.417000        1.0080           0
     27855 WT1      9189     TIP3     H2       HT       0.417000        1.0080           0
     27856 WT1      9190     TIP3     OH2      OT      -0.834000       15.9994           0
     27857 WT1      9190     TIP3     H1       HT       0.417000        1.0080           0
     27858 WT1      9190     TIP3     H2       HT       0.417000        1.0080           0
     27859 WT1      9191     TIP3     OH2      OT      -0.834000       15.9994           0
     27860 WT1      9191     TIP3     H1       HT       0.417000        1.0080           0
     27861 WT1      9191     TIP3     H2       HT       0.417000        1.0080           0
     27862 WT1      9192     TIP3     OH2      OT      -0.834000       15.9994           0
     27863 WT1      9192     TIP3     H1       HT       0.417000        1.0080           0
     27864 WT1      9192     TIP3     H2       HT       0.417000        1.0080           0
     27865 WT1      9193     TIP3     OH2      OT      -0.834000       15.9994           0
     27866 WT1      9193     TIP3     H1       HT       0.417000        1.0080           0
     27867 WT1      9193     TIP3     H2       HT       0.417000        1.0080           0
     27868 WT1      9194     TIP3     OH2      OT      -0.834000       15.9994           0
     27869 WT1      9194     TIP3     H1       HT       0.417000        1.0080           0
     27870 WT1      9194     TIP3     H2       HT       0.417000        1.0080           0
     27871 WT1      9196     TIP3     OH2      OT      -0.834000       15.9994           0
     27872 WT1      9196     TIP3     H1       HT       0.417000        1.0080           0
     27873 WT1      9196     TIP3     H2       HT       0.417000        1.0080           0
     27874 WT1      9197     TIP3     OH2      OT      -0.834000       15.9994           0
     27875 WT1      9197     TIP3     H1       HT       0.417000        1.0080           0
     27876 WT1      9197     TIP3     H2       HT       0.417000        1.0080           0
     27877 WT1      9198     TIP3     OH2      OT      -0.834000       15.9994           0
     27878 WT1      9198     TIP3     H1       HT       0.417000        1.0080           0
     27879 WT1      9198     TIP3     H2       HT       0.417000        1.0080           0
     27880 WT1      9199     TIP3     OH2      OT      -0.834000       15.9994           0
     27881 WT1      9199     TIP3     H1       HT       0.417000        1.0080           0
     27882 WT1      9199     TIP3     H2       HT       0.417000        1.0080           0
     27883 WT1      9200     TIP3     OH2      OT      -0.834000       15.9994           0
     27884 WT1      9200     TIP3     H1       HT       0.417000        1.0080           0
     27885 WT1      9200     TIP3     H2       HT       0.417000        1.0080           0
     27886 WT1      9201     TIP3     OH2      OT      -0.834000       15.9994           0
     27887 WT1      9201     TIP3     H1       HT       0.417000        1.0080           0
     27888 WT1      9201     TIP3     H2       HT       0.417000        1.0080           0
     27889 WT1      9202     TIP3     OH2      OT      -0.834000       15.9994           0
     27890 WT1      9202     TIP3     H1       HT       0.417000        1.0080           0
     27891 WT1      9202     TIP3     H2       HT       0.417000        1.0080           0
     27892 WT1      9203     TIP3     OH2      OT      -0.834000       15.9994           0
     27893 WT1      9203     TIP3     H1       HT       0.417000        1.0080           0
     27894 WT1      9203     TIP3     H2       HT       0.417000        1.0080           0
     27895 WT1      9204     TIP3     OH2      OT      -0.834000       15.9994           0
     27896 WT1      9204     TIP3     H1       HT       0.417000        1.0080           0
     27897 WT1      9204     TIP3     H2       HT       0.417000        1.0080           0
     27898 WT1      9205     TIP3     OH2      OT      -0.834000       15.9994           0
     27899 WT1      9205     TIP3     H1       HT       0.417000        1.0080           0
     27900 WT1      9205     TIP3     H2       HT       0.417000        1.0080           0
     27901 WT1      9206     TIP3     OH2      OT      -0.834000       15.9994           0
     27902 WT1      9206     TIP3     H1       HT       0.417000        1.0080           0
     27903 WT1      9206     TIP3     H2       HT       0.417000        1.0080           0
     27904 WT1      9207     TIP3     OH2      OT      -0.834000       15.9994           0
     27905 WT1      9207     TIP3     H1       HT       0.417000        1.0080           0
     27906 WT1      9207     TIP3     H2       HT       0.417000        1.0080           0
     27907 WT1      9208     TIP3     OH2      OT      -0.834000       15.9994           0
     27908 WT1      9208     TIP3     H1       HT       0.417000        1.0080           0
     27909 WT1      9208     TIP3     H2       HT       0.417000        1.0080           0
     27910 WT1      9209     TIP3     OH2      OT      -0.834000       15.9994           0
     27911 WT1      9209     TIP3     H1       HT       0.417000        1.0080           0
     27912 WT1      9209     TIP3     H2       HT       0.417000        1.0080           0
     27913 WT1      9210     TIP3     OH2      OT      -0.834000       15.9994           0
     27914 WT1      9210     TIP3     H1       HT       0.417000        1.0080           0
     27915 WT1      9210     TIP3     H2       HT       0.417000        1.0080           0
     27916 WT1      9211     TIP3     OH2      OT      -0.834000       15.9994           0
     27917 WT1      9211     TIP3     H1       HT       0.417000        1.0080           0
     27918 WT1      9211     TIP3     H2       HT       0.417000        1.0080           0
     27919 WT1      9212     TIP3     OH2      OT      -0.834000       15.9994           0
     27920 WT1      9212     TIP3     H1       HT       0.417000        1.0080           0
     27921 WT1      9212     TIP3     H2       HT       0.417000        1.0080           0
     27922 WT1      9213     TIP3     OH2      OT      -0.834000       15.9994           0
     27923 WT1      9213     TIP3     H1       HT       0.417000        1.0080           0
     27924 WT1      9213     TIP3     H2       HT       0.417000        1.0080           0
     27925 WT1      9214     TIP3     OH2      OT      -0.834000       15.9994           0
     27926 WT1      9214     TIP3     H1       HT       0.417000        1.0080           0
     27927 WT1      9214     TIP3     H2       HT       0.417000        1.0080           0
     27928 WT1      9215     TIP3     OH2      OT      -0.834000       15.9994           0
     27929 WT1      9215     TIP3     H1       HT       0.417000        1.0080           0
     27930 WT1      9215     TIP3     H2       HT       0.417000        1.0080           0
     27931 WT1      9216     TIP3     OH2      OT      -0.834000       15.9994           0
     27932 WT1      9216     TIP3     H1       HT       0.417000        1.0080           0
     27933 WT1      9216     TIP3     H2       HT       0.417000        1.0080           0
     27934 WT1      9217     TIP3     OH2      OT      -0.834000       15.9994           0
     27935 WT1      9217     TIP3     H1       HT       0.417000        1.0080           0
     27936 WT1      9217     TIP3     H2       HT       0.417000        1.0080           0
     27937 WT1      9218     TIP3     OH2      OT      -0.834000       15.9994           0
     27938 WT1      9218     TIP3     H1       HT       0.417000        1.0080           0
     27939 WT1      9218     TIP3     H2       HT       0.417000        1.0080           0
     27940 WT1      9219     TIP3     OH2      OT      -0.834000       15.9994           0
     27941 WT1      9219     TIP3     H1       HT       0.417000        1.0080           0
     27942 WT1      9219     TIP3     H2       HT       0.417000        1.0080           0
     27943 WT1      9220     TIP3     OH2      OT      -0.834000       15.9994           0
     27944 WT1      9220     TIP3     H1       HT       0.417000        1.0080           0
     27945 WT1      9220     TIP3     H2       HT       0.417000        1.0080           0
     27946 WT1      9221     TIP3     OH2      OT      -0.834000       15.9994           0
     27947 WT1      9221     TIP3     H1       HT       0.417000        1.0080           0
     27948 WT1      9221     TIP3     H2       HT       0.417000        1.0080           0
     27949 WT1      9222     TIP3     OH2      OT      -0.834000       15.9994           0
     27950 WT1      9222     TIP3     H1       HT       0.417000        1.0080           0
     27951 WT1      9222     TIP3     H2       HT       0.417000        1.0080           0
     27952 WT1      9223     TIP3     OH2      OT      -0.834000       15.9994           0
     27953 WT1      9223     TIP3     H1       HT       0.417000        1.0080           0
     27954 WT1      9223     TIP3     H2       HT       0.417000        1.0080           0
     27955 WT1      9224     TIP3     OH2      OT      -0.834000       15.9994           0
     27956 WT1      9224     TIP3     H1       HT       0.417000        1.0080           0
     27957 WT1      9224     TIP3     H2       HT       0.417000        1.0080           0
     27958 WT1      9225     TIP3     OH2      OT      -0.834000       15.9994           0
     27959 WT1      9225     TIP3     H1       HT       0.417000        1.0080           0
     27960 WT1      9225     TIP3     H2       HT       0.417000        1.0080           0
     27961 WT1      9226     TIP3     OH2      OT      -0.834000       15.9994           0
     27962 WT1      9226     TIP3     H1       HT       0.417000        1.0080           0
     27963 WT1      9226     TIP3     H2       HT       0.417000        1.0080           0
     27964 WT1      9227     TIP3     OH2      OT      -0.834000       15.9994           0
     27965 WT1      9227     TIP3     H1       HT       0.417000        1.0080           0
     27966 WT1      9227     TIP3     H2       HT       0.417000        1.0080           0
     27967 WT1      9228     TIP3     OH2      OT      -0.834000       15.9994           0
     27968 WT1      9228     TIP3     H1       HT       0.417000        1.0080           0
     27969 WT1      9228     TIP3     H2       HT       0.417000        1.0080           0
     27970 WT1      9229     TIP3     OH2      OT      -0.834000       15.9994           0
     27971 WT1      9229     TIP3     H1       HT       0.417000        1.0080           0
     27972 WT1      9229     TIP3     H2       HT       0.417000        1.0080           0
     27973 WT1      9230     TIP3     OH2      OT      -0.834000       15.9994           0
     27974 WT1      9230     TIP3     H1       HT       0.417000        1.0080           0
     27975 WT1      9230     TIP3     H2       HT       0.417000        1.0080           0
     27976 WT1      9231     TIP3     OH2      OT      -0.834000       15.9994           0
     27977 WT1      9231     TIP3     H1       HT       0.417000        1.0080           0
     27978 WT1      9231     TIP3     H2       HT       0.417000        1.0080           0
     27979 WT1      9232     TIP3     OH2      OT      -0.834000       15.9994           0
     27980 WT1      9232     TIP3     H1       HT       0.417000        1.0080           0
     27981 WT1      9232     TIP3     H2       HT       0.417000        1.0080           0
     27982 WT1      9233     TIP3     OH2      OT      -0.834000       15.9994           0
     27983 WT1      9233     TIP3     H1       HT       0.417000        1.0080           0
     27984 WT1      9233     TIP3     H2       HT       0.417000        1.0080           0
     27985 WT1      9234     TIP3     OH2      OT      -0.834000       15.9994           0
     27986 WT1      9234     TIP3     H1       HT       0.417000        1.0080           0
     27987 WT1      9234     TIP3     H2       HT       0.417000        1.0080           0
     27988 WT1      9235     TIP3     OH2      OT      -0.834000       15.9994           0
     27989 WT1      9235     TIP3     H1       HT       0.417000        1.0080           0
     27990 WT1      9235     TIP3     H2       HT       0.417000        1.0080           0
     27991 WT1      9236     TIP3     OH2      OT      -0.834000       15.9994           0
     27992 WT1      9236     TIP3     H1       HT       0.417000        1.0080           0
     27993 WT1      9236     TIP3     H2       HT       0.417000        1.0080           0
     27994 WT1      9237     TIP3     OH2      OT      -0.834000       15.9994           0
     27995 WT1      9237     TIP3     H1       HT       0.417000        1.0080           0
     27996 WT1      9237     TIP3     H2       HT       0.417000        1.0080           0
     27997 WT1      9238     TIP3     OH2      OT      -0.834000       15.9994           0
     27998 WT1      9238     TIP3     H1       HT       0.417000        1.0080           0
     27999 WT1      9238     TIP3     H2       HT       0.417000        1.0080           0
     28000 WT1      9239     TIP3     OH2      OT      -0.834000       15.9994           0
     28001 WT1      9239     TIP3     H1       HT       0.417000        1.0080           0
     28002 WT1      9239     TIP3     H2       HT       0.417000        1.0080           0
     28003 WT1      9240     TIP3     OH2      OT      -0.834000       15.9994           0
     28004 WT1      9240     TIP3     H1       HT       0.417000        1.0080           0
     28005 WT1      9240     TIP3     H2       HT       0.417000        1.0080           0
     28006 WT1      9241     TIP3     OH2      OT      -0.834000       15.9994           0
     28007 WT1      9241     TIP3     H1       HT       0.417000        1.0080           0
     28008 WT1      9241     TIP3     H2       HT       0.417000        1.0080           0
     28009 WT1      9243     TIP3     OH2      OT      -0.834000       15.9994           0
     28010 WT1      9243     TIP3     H1       HT       0.417000        1.0080           0
     28011 WT1      9243     TIP3     H2       HT       0.417000        1.0080           0
     28012 WT1      9244     TIP3     OH2      OT      -0.834000       15.9994           0
     28013 WT1      9244     TIP3     H1       HT       0.417000        1.0080           0
     28014 WT1      9244     TIP3     H2       HT       0.417000        1.0080           0
     28015 WT1      9245     TIP3     OH2      OT      -0.834000       15.9994           0
     28016 WT1      9245     TIP3     H1       HT       0.417000        1.0080           0
     28017 WT1      9245     TIP3     H2       HT       0.417000        1.0080           0
     28018 WT1      9246     TIP3     OH2      OT      -0.834000       15.9994           0
     28019 WT1      9246     TIP3     H1       HT       0.417000        1.0080           0
     28020 WT1      9246     TIP3     H2       HT       0.417000        1.0080           0
     28021 WT1      9247     TIP3     OH2      OT      -0.834000       15.9994           0
     28022 WT1      9247     TIP3     H1       HT       0.417000        1.0080           0
     28023 WT1      9247     TIP3     H2       HT       0.417000        1.0080           0
     28024 WT1      9248     TIP3     OH2      OT      -0.834000       15.9994           0
     28025 WT1      9248     TIP3     H1       HT       0.417000        1.0080           0
     28026 WT1      9248     TIP3     H2       HT       0.417000        1.0080           0
     28027 WT1      9249     TIP3     OH2      OT      -0.834000       15.9994           0
     28028 WT1      9249     TIP3     H1       HT       0.417000        1.0080           0
     28029 WT1      9249     TIP3     H2       HT       0.417000        1.0080           0
     28030 WT1      9250     TIP3     OH2      OT      -0.834000       15.9994           0
     28031 WT1      9250     TIP3     H1       HT       0.417000        1.0080           0
     28032 WT1      9250     TIP3     H2       HT       0.417000        1.0080           0
     28033 WT1      9251     TIP3     OH2      OT      -0.834000       15.9994           0
     28034 WT1      9251     TIP3     H1       HT       0.417000        1.0080           0
     28035 WT1      9251     TIP3     H2       HT       0.417000        1.0080           0
     28036 WT1      9252     TIP3     OH2      OT      -0.834000       15.9994           0
     28037 WT1      9252     TIP3     H1       HT       0.417000        1.0080           0
     28038 WT1      9252     TIP3     H2       HT       0.417000        1.0080           0
     28039 WT1      9253     TIP3     OH2      OT      -0.834000       15.9994           0
     28040 WT1      9253     TIP3     H1       HT       0.417000        1.0080           0
     28041 WT1      9253     TIP3     H2       HT       0.417000        1.0080           0
     28042 WT1      9254     TIP3     OH2      OT      -0.834000       15.9994           0
     28043 WT1      9254     TIP3     H1       HT       0.417000        1.0080           0
     28044 WT1      9254     TIP3     H2       HT       0.417000        1.0080           0
     28045 WT1      9255     TIP3     OH2      OT      -0.834000       15.9994           0
     28046 WT1      9255     TIP3     H1       HT       0.417000        1.0080           0
     28047 WT1      9255     TIP3     H2       HT       0.417000        1.0080           0
     28048 WT1      9256     TIP3     OH2      OT      -0.834000       15.9994           0
     28049 WT1      9256     TIP3     H1       HT       0.417000        1.0080           0
     28050 WT1      9256     TIP3     H2       HT       0.417000        1.0080           0
     28051 WT1      9257     TIP3     OH2      OT      -0.834000       15.9994           0
     28052 WT1      9257     TIP3     H1       HT       0.417000        1.0080           0
     28053 WT1      9257     TIP3     H2       HT       0.417000        1.0080           0
     28054 WT1      9258     TIP3     OH2      OT      -0.834000       15.9994           0
     28055 WT1      9258     TIP3     H1       HT       0.417000        1.0080           0
     28056 WT1      9258     TIP3     H2       HT       0.417000        1.0080           0
     28057 WT1      9259     TIP3     OH2      OT      -0.834000       15.9994           0
     28058 WT1      9259     TIP3     H1       HT       0.417000        1.0080           0
     28059 WT1      9259     TIP3     H2       HT       0.417000        1.0080           0
     28060 WT1      9260     TIP3     OH2      OT      -0.834000       15.9994           0
     28061 WT1      9260     TIP3     H1       HT       0.417000        1.0080           0
     28062 WT1      9260     TIP3     H2       HT       0.417000        1.0080           0
     28063 WT1      9261     TIP3     OH2      OT      -0.834000       15.9994           0
     28064 WT1      9261     TIP3     H1       HT       0.417000        1.0080           0
     28065 WT1      9261     TIP3     H2       HT       0.417000        1.0080           0
     28066 WT2      2        TIP3     OH2      OT      -0.834000       15.9994           0
     28067 WT2      2        TIP3     H1       HT       0.417000        1.0080           0
     28068 WT2      2        TIP3     H2       HT       0.417000        1.0080           0
     28069 WT2      3        TIP3     OH2      OT      -0.834000       15.9994           0
     28070 WT2      3        TIP3     H1       HT       0.417000        1.0080           0
     28071 WT2      3        TIP3     H2       HT       0.417000        1.0080           0
     28072 WT2      4        TIP3     OH2      OT      -0.834000       15.9994           0
     28073 WT2      4        TIP3     H1       HT       0.417000        1.0080           0
     28074 WT2      4        TIP3     H2       HT       0.417000        1.0080           0
     28075 WT2      5        TIP3     OH2      OT      -0.834000       15.9994           0
     28076 WT2      5        TIP3     H1       HT       0.417000        1.0080           0
     28077 WT2      5        TIP3     H2       HT       0.417000        1.0080           0
     28078 WT2      7        TIP3     OH2      OT      -0.834000       15.9994           0
     28079 WT2      7        TIP3     H1       HT       0.417000        1.0080           0
     28080 WT2      7        TIP3     H2       HT       0.417000        1.0080           0
     28081 WT2      9        TIP3     OH2      OT      -0.834000       15.9994           0
     28082 WT2      9        TIP3     H1       HT       0.417000        1.0080           0
     28083 WT2      9        TIP3     H2       HT       0.417000        1.0080           0
     28084 WT2      11       TIP3     OH2      OT      -0.834000       15.9994           0
     28085 WT2      11       TIP3     H1       HT       0.417000        1.0080           0
     28086 WT2      11       TIP3     H2       HT       0.417000        1.0080           0
     28087 WT2      21       TIP3     OH2      OT      -0.834000       15.9994           0
     28088 WT2      21       TIP3     H1       HT       0.417000        1.0080           0
     28089 WT2      21       TIP3     H2       HT       0.417000        1.0080           0
     28090 WT2      22       TIP3     OH2      OT      -0.834000       15.9994           0
     28091 WT2      22       TIP3     H1       HT       0.417000        1.0080           0
     28092 WT2      22       TIP3     H2       HT       0.417000        1.0080           0
     28093 WT2      23       TIP3     OH2      OT      -0.834000       15.9994           0
     28094 WT2      23       TIP3     H1       HT       0.417000        1.0080           0
     28095 WT2      23       TIP3     H2       HT       0.417000        1.0080           0
     28096 WT2      24       TIP3     OH2      OT      -0.834000       15.9994           0
     28097 WT2      24       TIP3     H1       HT       0.417000        1.0080           0
     28098 WT2      24       TIP3     H2       HT       0.417000        1.0080           0
     28099 WT2      25       TIP3     OH2      OT      -0.834000       15.9994           0
     28100 WT2      25       TIP3     H1       HT       0.417000        1.0080           0
     28101 WT2      25       TIP3     H2       HT       0.417000        1.0080           0
     28102 WT2      27       TIP3     OH2      OT      -0.834000       15.9994           0
     28103 WT2      27       TIP3     H1       HT       0.417000        1.0080           0
     28104 WT2      27       TIP3     H2       HT       0.417000        1.0080           0
     28105 WT2      28       TIP3     OH2      OT      -0.834000       15.9994           0
     28106 WT2      28       TIP3     H1       HT       0.417000        1.0080           0
     28107 WT2      28       TIP3     H2       HT       0.417000        1.0080           0
     28108 WT2      29       TIP3     OH2      OT      -0.834000       15.9994           0
     28109 WT2      29       TIP3     H1       HT       0.417000        1.0080           0
     28110 WT2      29       TIP3     H2       HT       0.417000        1.0080           0
     28111 WT2      31       TIP3     OH2      OT      -0.834000       15.9994           0
     28112 WT2      31       TIP3     H1       HT       0.417000        1.0080           0
     28113 WT2      31       TIP3     H2       HT       0.417000        1.0080           0
     28114 WT2      36       TIP3     OH2      OT      -0.834000       15.9994           0
     28115 WT2      36       TIP3     H1       HT       0.417000        1.0080           0
     28116 WT2      36       TIP3     H2       HT       0.417000        1.0080           0
     28117 WT2      40       TIP3     OH2      OT      -0.834000       15.9994           0
     28118 WT2      40       TIP3     H1       HT       0.417000        1.0080           0
     28119 WT2      40       TIP3     H2       HT       0.417000        1.0080           0
     28120 WT2      43       TIP3     OH2      OT      -0.834000       15.9994           0
     28121 WT2      43       TIP3     H1       HT       0.417000        1.0080           0
     28122 WT2      43       TIP3     H2       HT       0.417000        1.0080           0
     28123 WT2      44       TIP3     OH2      OT      -0.834000       15.9994           0
     28124 WT2      44       TIP3     H1       HT       0.417000        1.0080           0
     28125 WT2      44       TIP3     H2       HT       0.417000        1.0080           0
     28126 WT2      45       TIP3     OH2      OT      -0.834000       15.9994           0
     28127 WT2      45       TIP3     H1       HT       0.417000        1.0080           0
     28128 WT2      45       TIP3     H2       HT       0.417000        1.0080           0
     28129 WT2      46       TIP3     OH2      OT      -0.834000       15.9994           0
     28130 WT2      46       TIP3     H1       HT       0.417000        1.0080           0
     28131 WT2      46       TIP3     H2       HT       0.417000        1.0080           0
     28132 WT2      47       TIP3     OH2      OT      -0.834000       15.9994           0
     28133 WT2      47       TIP3     H1       HT       0.417000        1.0080           0
     28134 WT2      47       TIP3     H2       HT       0.417000        1.0080           0
     28135 WT2      48       TIP3     OH2      OT      -0.834000       15.9994           0
     28136 WT2      48       TIP3     H1       HT       0.417000        1.0080           0
     28137 WT2      48       TIP3     H2       HT       0.417000        1.0080           0
     28138 WT2      49       TIP3     OH2      OT      -0.834000       15.9994           0
     28139 WT2      49       TIP3     H1       HT       0.417000        1.0080           0
     28140 WT2      49       TIP3     H2       HT       0.417000        1.0080           0
     28141 WT2      50       TIP3     OH2      OT      -0.834000       15.9994           0
     28142 WT2      50       TIP3     H1       HT       0.417000        1.0080           0
     28143 WT2      50       TIP3     H2       HT       0.417000        1.0080           0
     28144 WT2      52       TIP3     OH2      OT      -0.834000       15.9994           0
     28145 WT2      52       TIP3     H1       HT       0.417000        1.0080           0
     28146 WT2      52       TIP3     H2       HT       0.417000        1.0080           0
     28147 WT2      64       TIP3     OH2      OT      -0.834000       15.9994           0
     28148 WT2      64       TIP3     H1       HT       0.417000        1.0080           0
     28149 WT2      64       TIP3     H2       HT       0.417000        1.0080           0
     28150 WT2      65       TIP3     OH2      OT      -0.834000       15.9994           0
     28151 WT2      65       TIP3     H1       HT       0.417000        1.0080           0
     28152 WT2      65       TIP3     H2       HT       0.417000        1.0080           0
     28153 WT2      66       TIP3     OH2      OT      -0.834000       15.9994           0
     28154 WT2      66       TIP3     H1       HT       0.417000        1.0080           0
     28155 WT2      66       TIP3     H2       HT       0.417000        1.0080           0
     28156 WT2      67       TIP3     OH2      OT      -0.834000       15.9994           0
     28157 WT2      67       TIP3     H1       HT       0.417000        1.0080           0
     28158 WT2      67       TIP3     H2       HT       0.417000        1.0080           0
     28159 WT2      68       TIP3     OH2      OT      -0.834000       15.9994           0
     28160 WT2      68       TIP3     H1       HT       0.417000        1.0080           0
     28161 WT2      68       TIP3     H2       HT       0.417000        1.0080           0
     28162 WT2      69       TIP3     OH2      OT      -0.834000       15.9994           0
     28163 WT2      69       TIP3     H1       HT       0.417000        1.0080           0
     28164 WT2      69       TIP3     H2       HT       0.417000        1.0080           0
     28165 WT2      70       TIP3     OH2      OT      -0.834000       15.9994           0
     28166 WT2      70       TIP3     H1       HT       0.417000        1.0080           0
     28167 WT2      70       TIP3     H2       HT       0.417000        1.0080           0
     28168 WT2      72       TIP3     OH2      OT      -0.834000       15.9994           0
     28169 WT2      72       TIP3     H1       HT       0.417000        1.0080           0
     28170 WT2      72       TIP3     H2       HT       0.417000        1.0080           0
     28171 WT2      73       TIP3     OH2      OT      -0.834000       15.9994           0
     28172 WT2      73       TIP3     H1       HT       0.417000        1.0080           0
     28173 WT2      73       TIP3     H2       HT       0.417000        1.0080           0
     28174 WT2      74       TIP3     OH2      OT      -0.834000       15.9994           0
     28175 WT2      74       TIP3     H1       HT       0.417000        1.0080           0
     28176 WT2      74       TIP3     H2       HT       0.417000        1.0080           0
     28177 WT2      83       TIP3     OH2      OT      -0.834000       15.9994           0
     28178 WT2      83       TIP3     H1       HT       0.417000        1.0080           0
     28179 WT2      83       TIP3     H2       HT       0.417000        1.0080           0
     28180 WT2      85       TIP3     OH2      OT      -0.834000       15.9994           0
     28181 WT2      85       TIP3     H1       HT       0.417000        1.0080           0
     28182 WT2      85       TIP3     H2       HT       0.417000        1.0080           0
     28183 WT2      86       TIP3     OH2      OT      -0.834000       15.9994           0
     28184 WT2      86       TIP3     H1       HT       0.417000        1.0080           0
     28185 WT2      86       TIP3     H2       HT       0.417000        1.0080           0
     28186 WT2      87       TIP3     OH2      OT      -0.834000       15.9994           0
     28187 WT2      87       TIP3     H1       HT       0.417000        1.0080           0
     28188 WT2      87       TIP3     H2       HT       0.417000        1.0080           0
     28189 WT2      88       TIP3     OH2      OT      -0.834000       15.9994           0
     28190 WT2      88       TIP3     H1       HT       0.417000        1.0080           0
     28191 WT2      88       TIP3     H2       HT       0.417000        1.0080           0
     28192 WT2      89       TIP3     OH2      OT      -0.834000       15.9994           0
     28193 WT2      89       TIP3     H1       HT       0.417000        1.0080           0
     28194 WT2      89       TIP3     H2       HT       0.417000        1.0080           0
     28195 WT2      90       TIP3     OH2      OT      -0.834000       15.9994           0
     28196 WT2      90       TIP3     H1       HT       0.417000        1.0080           0
     28197 WT2      90       TIP3     H2       HT       0.417000        1.0080           0
     28198 WT2      91       TIP3     OH2      OT      -0.834000       15.9994           0
     28199 WT2      91       TIP3     H1       HT       0.417000        1.0080           0
     28200 WT2      91       TIP3     H2       HT       0.417000        1.0080           0
     28201 WT2      93       TIP3     OH2      OT      -0.834000       15.9994           0
     28202 WT2      93       TIP3     H1       HT       0.417000        1.0080           0
     28203 WT2      93       TIP3     H2       HT       0.417000        1.0080           0
     28204 WT2      94       TIP3     OH2      OT      -0.834000       15.9994           0
     28205 WT2      94       TIP3     H1       HT       0.417000        1.0080           0
     28206 WT2      94       TIP3     H2       HT       0.417000        1.0080           0
     28207 WT2      95       TIP3     OH2      OT      -0.834000       15.9994           0
     28208 WT2      95       TIP3     H1       HT       0.417000        1.0080           0
     28209 WT2      95       TIP3     H2       HT       0.417000        1.0080           0
     28210 WT2      107      TIP3     OH2      OT      -0.834000       15.9994           0
     28211 WT2      107      TIP3     H1       HT       0.417000        1.0080           0
     28212 WT2      107      TIP3     H2       HT       0.417000        1.0080           0
     28213 WT2      108      TIP3     OH2      OT      -0.834000       15.9994           0
     28214 WT2      108      TIP3     H1       HT       0.417000        1.0080           0
     28215 WT2      108      TIP3     H2       HT       0.417000        1.0080           0
     28216 WT2      109      TIP3     OH2      OT      -0.834000       15.9994           0
     28217 WT2      109      TIP3     H1       HT       0.417000        1.0080           0
     28218 WT2      109      TIP3     H2       HT       0.417000        1.0080           0
     28219 WT2      110      TIP3     OH2      OT      -0.834000       15.9994           0
     28220 WT2      110      TIP3     H1       HT       0.417000        1.0080           0
     28221 WT2      110      TIP3     H2       HT       0.417000        1.0080           0
     28222 WT2      111      TIP3     OH2      OT      -0.834000       15.9994           0
     28223 WT2      111      TIP3     H1       HT       0.417000        1.0080           0
     28224 WT2      111      TIP3     H2       HT       0.417000        1.0080           0
     28225 WT2      112      TIP3     OH2      OT      -0.834000       15.9994           0
     28226 WT2      112      TIP3     H1       HT       0.417000        1.0080           0
     28227 WT2      112      TIP3     H2       HT       0.417000        1.0080           0
     28228 WT2      113      TIP3     OH2      OT      -0.834000       15.9994           0
     28229 WT2      113      TIP3     H1       HT       0.417000        1.0080           0
     28230 WT2      113      TIP3     H2       HT       0.417000        1.0080           0
     28231 WT2      114      TIP3     OH2      OT      -0.834000       15.9994           0
     28232 WT2      114      TIP3     H1       HT       0.417000        1.0080           0
     28233 WT2      114      TIP3     H2       HT       0.417000        1.0080           0
     28234 WT2      115      TIP3     OH2      OT      -0.834000       15.9994           0
     28235 WT2      115      TIP3     H1       HT       0.417000        1.0080           0
     28236 WT2      115      TIP3     H2       HT       0.417000        1.0080           0
     28237 WT2      125      TIP3     OH2      OT      -0.834000       15.9994           0
     28238 WT2      125      TIP3     H1       HT       0.417000        1.0080           0
     28239 WT2      125      TIP3     H2       HT       0.417000        1.0080           0
     28240 WT2      129      TIP3     OH2      OT      -0.834000       15.9994           0
     28241 WT2      129      TIP3     H1       HT       0.417000        1.0080           0
     28242 WT2      129      TIP3     H2       HT       0.417000        1.0080           0
     28243 WT2      130      TIP3     OH2      OT      -0.834000       15.9994           0
     28244 WT2      130      TIP3     H1       HT       0.417000        1.0080           0
     28245 WT2      130      TIP3     H2       HT       0.417000        1.0080           0
     28246 WT2      132      TIP3     OH2      OT      -0.834000       15.9994           0
     28247 WT2      132      TIP3     H1       HT       0.417000        1.0080           0
     28248 WT2      132      TIP3     H2       HT       0.417000        1.0080           0
     28249 WT2      133      TIP3     OH2      OT      -0.834000       15.9994           0
     28250 WT2      133      TIP3     H1       HT       0.417000        1.0080           0
     28251 WT2      133      TIP3     H2       HT       0.417000        1.0080           0
     28252 WT2      134      TIP3     OH2      OT      -0.834000       15.9994           0
     28253 WT2      134      TIP3     H1       HT       0.417000        1.0080           0
     28254 WT2      134      TIP3     H2       HT       0.417000        1.0080           0
     28255 WT2      144      TIP3     OH2      OT      -0.834000       15.9994           0
     28256 WT2      144      TIP3     H1       HT       0.417000        1.0080           0
     28257 WT2      144      TIP3     H2       HT       0.417000        1.0080           0
     28258 WT2      145      TIP3     OH2      OT      -0.834000       15.9994           0
     28259 WT2      145      TIP3     H1       HT       0.417000        1.0080           0
     28260 WT2      145      TIP3     H2       HT       0.417000        1.0080           0
     28261 WT2      146      TIP3     OH2      OT      -0.834000       15.9994           0
     28262 WT2      146      TIP3     H1       HT       0.417000        1.0080           0
     28263 WT2      146      TIP3     H2       HT       0.417000        1.0080           0
     28264 WT2      149      TIP3     OH2      OT      -0.834000       15.9994           0
     28265 WT2      149      TIP3     H1       HT       0.417000        1.0080           0
     28266 WT2      149      TIP3     H2       HT       0.417000        1.0080           0
     28267 WT2      150      TIP3     OH2      OT      -0.834000       15.9994           0
     28268 WT2      150      TIP3     H1       HT       0.417000        1.0080           0
     28269 WT2      150      TIP3     H2       HT       0.417000        1.0080           0
     28270 WT2      151      TIP3     OH2      OT      -0.834000       15.9994           0
     28271 WT2      151      TIP3     H1       HT       0.417000        1.0080           0
     28272 WT2      151      TIP3     H2       HT       0.417000        1.0080           0
     28273 WT2      152      TIP3     OH2      OT      -0.834000       15.9994           0
     28274 WT2      152      TIP3     H1       HT       0.417000        1.0080           0
     28275 WT2      152      TIP3     H2       HT       0.417000        1.0080           0
     28276 WT2      153      TIP3     OH2      OT      -0.834000       15.9994           0
     28277 WT2      153      TIP3     H1       HT       0.417000        1.0080           0
     28278 WT2      153      TIP3     H2       HT       0.417000        1.0080           0
     28279 WT2      154      TIP3     OH2      OT      -0.834000       15.9994           0
     28280 WT2      154      TIP3     H1       HT       0.417000        1.0080           0
     28281 WT2      154      TIP3     H2       HT       0.417000        1.0080           0
     28282 WT2      167      TIP3     OH2      OT      -0.834000       15.9994           0
     28283 WT2      167      TIP3     H1       HT       0.417000        1.0080           0
     28284 WT2      167      TIP3     H2       HT       0.417000        1.0080           0
     28285 WT2      170      TIP3     OH2      OT      -0.834000       15.9994           0
     28286 WT2      170      TIP3     H1       HT       0.417000        1.0080           0
     28287 WT2      170      TIP3     H2       HT       0.417000        1.0080           0
     28288 WT2      171      TIP3     OH2      OT      -0.834000       15.9994           0
     28289 WT2      171      TIP3     H1       HT       0.417000        1.0080           0
     28290 WT2      171      TIP3     H2       HT       0.417000        1.0080           0
     28291 WT2      173      TIP3     OH2      OT      -0.834000       15.9994           0
     28292 WT2      173      TIP3     H1       HT       0.417000        1.0080           0
     28293 WT2      173      TIP3     H2       HT       0.417000        1.0080           0
     28294 WT2      174      TIP3     OH2      OT      -0.834000       15.9994           0
     28295 WT2      174      TIP3     H1       HT       0.417000        1.0080           0
     28296 WT2      174      TIP3     H2       HT       0.417000        1.0080           0
     28297 WT2      178      TIP3     OH2      OT      -0.834000       15.9994           0
     28298 WT2      178      TIP3     H1       HT       0.417000        1.0080           0
     28299 WT2      178      TIP3     H2       HT       0.417000        1.0080           0
     28300 WT2      189      TIP3     OH2      OT      -0.834000       15.9994           0
     28301 WT2      189      TIP3     H1       HT       0.417000        1.0080           0
     28302 WT2      189      TIP3     H2       HT       0.417000        1.0080           0
     28303 WT2      190      TIP3     OH2      OT      -0.834000       15.9994           0
     28304 WT2      190      TIP3     H1       HT       0.417000        1.0080           0
     28305 WT2      190      TIP3     H2       HT       0.417000        1.0080           0
     28306 WT2      191      TIP3     OH2      OT      -0.834000       15.9994           0
     28307 WT2      191      TIP3     H1       HT       0.417000        1.0080           0
     28308 WT2      191      TIP3     H2       HT       0.417000        1.0080           0
     28309 WT2      192      TIP3     OH2      OT      -0.834000       15.9994           0
     28310 WT2      192      TIP3     H1       HT       0.417000        1.0080           0
     28311 WT2      192      TIP3     H2       HT       0.417000        1.0080           0
     28312 WT2      193      TIP3     OH2      OT      -0.834000       15.9994           0
     28313 WT2      193      TIP3     H1       HT       0.417000        1.0080           0
     28314 WT2      193      TIP3     H2       HT       0.417000        1.0080           0
     28315 WT2      195      TIP3     OH2      OT      -0.834000       15.9994           0
     28316 WT2      195      TIP3     H1       HT       0.417000        1.0080           0
     28317 WT2      195      TIP3     H2       HT       0.417000        1.0080           0
     28318 WT2      196      TIP3     OH2      OT      -0.834000       15.9994           0
     28319 WT2      196      TIP3     H1       HT       0.417000        1.0080           0
     28320 WT2      196      TIP3     H2       HT       0.417000        1.0080           0
     28321 WT2      199      TIP3     OH2      OT      -0.834000       15.9994           0
     28322 WT2      199      TIP3     H1       HT       0.417000        1.0080           0
     28323 WT2      199      TIP3     H2       HT       0.417000        1.0080           0
     28324 WT2      212      TIP3     OH2      OT      -0.834000       15.9994           0
     28325 WT2      212      TIP3     H1       HT       0.417000        1.0080           0
     28326 WT2      212      TIP3     H2       HT       0.417000        1.0080           0
     28327 WT2      214      TIP3     OH2      OT      -0.834000       15.9994           0
     28328 WT2      214      TIP3     H1       HT       0.417000        1.0080           0
     28329 WT2      214      TIP3     H2       HT       0.417000        1.0080           0
     28330 WT2      217      TIP3     OH2      OT      -0.834000       15.9994           0
     28331 WT2      217      TIP3     H1       HT       0.417000        1.0080           0
     28332 WT2      217      TIP3     H2       HT       0.417000        1.0080           0
     28333 WT2      218      TIP3     OH2      OT      -0.834000       15.9994           0
     28334 WT2      218      TIP3     H1       HT       0.417000        1.0080           0
     28335 WT2      218      TIP3     H2       HT       0.417000        1.0080           0
     28336 WT2      233      TIP3     OH2      OT      -0.834000       15.9994           0
     28337 WT2      233      TIP3     H1       HT       0.417000        1.0080           0
     28338 WT2      233      TIP3     H2       HT       0.417000        1.0080           0
     28339 WT2      235      TIP3     OH2      OT      -0.834000       15.9994           0
     28340 WT2      235      TIP3     H1       HT       0.417000        1.0080           0
     28341 WT2      235      TIP3     H2       HT       0.417000        1.0080           0
     28342 WT2      236      TIP3     OH2      OT      -0.834000       15.9994           0
     28343 WT2      236      TIP3     H1       HT       0.417000        1.0080           0
     28344 WT2      236      TIP3     H2       HT       0.417000        1.0080           0
     28345 WT2      237      TIP3     OH2      OT      -0.834000       15.9994           0
     28346 WT2      237      TIP3     H1       HT       0.417000        1.0080           0
     28347 WT2      237      TIP3     H2       HT       0.417000        1.0080           0
     28348 WT2      239      TIP3     OH2      OT      -0.834000       15.9994           0
     28349 WT2      239      TIP3     H1       HT       0.417000        1.0080           0
     28350 WT2      239      TIP3     H2       HT       0.417000        1.0080           0
     28351 WT2      244      TIP3     OH2      OT      -0.834000       15.9994           0
     28352 WT2      244      TIP3     H1       HT       0.417000        1.0080           0
     28353 WT2      244      TIP3     H2       HT       0.417000        1.0080           0
     28354 WT2      245      TIP3     OH2      OT      -0.834000       15.9994           0
     28355 WT2      245      TIP3     H1       HT       0.417000        1.0080           0
     28356 WT2      245      TIP3     H2       HT       0.417000        1.0080           0
     28357 WT2      252      TIP3     OH2      OT      -0.834000       15.9994           0
     28358 WT2      252      TIP3     H1       HT       0.417000        1.0080           0
     28359 WT2      252      TIP3     H2       HT       0.417000        1.0080           0
     28360 WT2      253      TIP3     OH2      OT      -0.834000       15.9994           0
     28361 WT2      253      TIP3     H1       HT       0.417000        1.0080           0
     28362 WT2      253      TIP3     H2       HT       0.417000        1.0080           0
     28363 WT2      255      TIP3     OH2      OT      -0.834000       15.9994           0
     28364 WT2      255      TIP3     H1       HT       0.417000        1.0080           0
     28365 WT2      255      TIP3     H2       HT       0.417000        1.0080           0
     28366 WT2      256      TIP3     OH2      OT      -0.834000       15.9994           0
     28367 WT2      256      TIP3     H1       HT       0.417000        1.0080           0
     28368 WT2      256      TIP3     H2       HT       0.417000        1.0080           0
     28369 WT2      257      TIP3     OH2      OT      -0.834000       15.9994           0
     28370 WT2      257      TIP3     H1       HT       0.417000        1.0080           0
     28371 WT2      257      TIP3     H2       HT       0.417000        1.0080           0
     28372 WT2      258      TIP3     OH2      OT      -0.834000       15.9994           0
     28373 WT2      258      TIP3     H1       HT       0.417000        1.0080           0
     28374 WT2      258      TIP3     H2       HT       0.417000        1.0080           0
     28375 WT2      260      TIP3     OH2      OT      -0.834000       15.9994           0
     28376 WT2      260      TIP3     H1       HT       0.417000        1.0080           0
     28377 WT2      260      TIP3     H2       HT       0.417000        1.0080           0
     28378 WT2      262      TIP3     OH2      OT      -0.834000       15.9994           0
     28379 WT2      262      TIP3     H1       HT       0.417000        1.0080           0
     28380 WT2      262      TIP3     H2       HT       0.417000        1.0080           0
     28381 WT2      264      TIP3     OH2      OT      -0.834000       15.9994           0
     28382 WT2      264      TIP3     H1       HT       0.417000        1.0080           0
     28383 WT2      264      TIP3     H2       HT       0.417000        1.0080           0
     28384 WT2      273      TIP3     OH2      OT      -0.834000       15.9994           0
     28385 WT2      273      TIP3     H1       HT       0.417000        1.0080           0
     28386 WT2      273      TIP3     H2       HT       0.417000        1.0080           0
     28387 WT2      278      TIP3     OH2      OT      -0.834000       15.9994           0
     28388 WT2      278      TIP3     H1       HT       0.417000        1.0080           0
     28389 WT2      278      TIP3     H2       HT       0.417000        1.0080           0
     28390 WT2      279      TIP3     OH2      OT      -0.834000       15.9994           0
     28391 WT2      279      TIP3     H1       HT       0.417000        1.0080           0
     28392 WT2      279      TIP3     H2       HT       0.417000        1.0080           0
     28393 WT2      280      TIP3     OH2      OT      -0.834000       15.9994           0
     28394 WT2      280      TIP3     H1       HT       0.417000        1.0080           0
     28395 WT2      280      TIP3     H2       HT       0.417000        1.0080           0
     28396 WT2      282      TIP3     OH2      OT      -0.834000       15.9994           0
     28397 WT2      282      TIP3     H1       HT       0.417000        1.0080           0
     28398 WT2      282      TIP3     H2       HT       0.417000        1.0080           0
     28399 WT2      295      TIP3     OH2      OT      -0.834000       15.9994           0
     28400 WT2      295      TIP3     H1       HT       0.417000        1.0080           0
     28401 WT2      295      TIP3     H2       HT       0.417000        1.0080           0
     28402 WT2      296      TIP3     OH2      OT      -0.834000       15.9994           0
     28403 WT2      296      TIP3     H1       HT       0.417000        1.0080           0
     28404 WT2      296      TIP3     H2       HT       0.417000        1.0080           0
     28405 WT2      297      TIP3     OH2      OT      -0.834000       15.9994           0
     28406 WT2      297      TIP3     H1       HT       0.417000        1.0080           0
     28407 WT2      297      TIP3     H2       HT       0.417000        1.0080           0
     28408 WT2      298      TIP3     OH2      OT      -0.834000       15.9994           0
     28409 WT2      298      TIP3     H1       HT       0.417000        1.0080           0
     28410 WT2      298      TIP3     H2       HT       0.417000        1.0080           0
     28411 WT2      299      TIP3     OH2      OT      -0.834000       15.9994           0
     28412 WT2      299      TIP3     H1       HT       0.417000        1.0080           0
     28413 WT2      299      TIP3     H2       HT       0.417000        1.0080           0
     28414 WT2      300      TIP3     OH2      OT      -0.834000       15.9994           0
     28415 WT2      300      TIP3     H1       HT       0.417000        1.0080           0
     28416 WT2      300      TIP3     H2       HT       0.417000        1.0080           0
     28417 WT2      301      TIP3     OH2      OT      -0.834000       15.9994           0
     28418 WT2      301      TIP3     H1       HT       0.417000        1.0080           0
     28419 WT2      301      TIP3     H2       HT       0.417000        1.0080           0
     28420 WT2      302      TIP3     OH2      OT      -0.834000       15.9994           0
     28421 WT2      302      TIP3     H1       HT       0.417000        1.0080           0
     28422 WT2      302      TIP3     H2       HT       0.417000        1.0080           0
     28423 WT2      303      TIP3     OH2      OT      -0.834000       15.9994           0
     28424 WT2      303      TIP3     H1       HT       0.417000        1.0080           0
     28425 WT2      303      TIP3     H2       HT       0.417000        1.0080           0
     28426 WT2      315      TIP3     OH2      OT      -0.834000       15.9994           0
     28427 WT2      315      TIP3     H1       HT       0.417000        1.0080           0
     28428 WT2      315      TIP3     H2       HT       0.417000        1.0080           0
     28429 WT2      316      TIP3     OH2      OT      -0.834000       15.9994           0
     28430 WT2      316      TIP3     H1       HT       0.417000        1.0080           0
     28431 WT2      316      TIP3     H2       HT       0.417000        1.0080           0
     28432 WT2      317      TIP3     OH2      OT      -0.834000       15.9994           0
     28433 WT2      317      TIP3     H1       HT       0.417000        1.0080           0
     28434 WT2      317      TIP3     H2       HT       0.417000        1.0080           0
     28435 WT2      319      TIP3     OH2      OT      -0.834000       15.9994           0
     28436 WT2      319      TIP3     H1       HT       0.417000        1.0080           0
     28437 WT2      319      TIP3     H2       HT       0.417000        1.0080           0
     28438 WT2      320      TIP3     OH2      OT      -0.834000       15.9994           0
     28439 WT2      320      TIP3     H1       HT       0.417000        1.0080           0
     28440 WT2      320      TIP3     H2       HT       0.417000        1.0080           0
     28441 WT2      321      TIP3     OH2      OT      -0.834000       15.9994           0
     28442 WT2      321      TIP3     H1       HT       0.417000        1.0080           0
     28443 WT2      321      TIP3     H2       HT       0.417000        1.0080           0
     28444 WT2      322      TIP3     OH2      OT      -0.834000       15.9994           0
     28445 WT2      322      TIP3     H1       HT       0.417000        1.0080           0
     28446 WT2      322      TIP3     H2       HT       0.417000        1.0080           0
     28447 WT2      334      TIP3     OH2      OT      -0.834000       15.9994           0
     28448 WT2      334      TIP3     H1       HT       0.417000        1.0080           0
     28449 WT2      334      TIP3     H2       HT       0.417000        1.0080           0
     28450 WT2      335      TIP3     OH2      OT      -0.834000       15.9994           0
     28451 WT2      335      TIP3     H1       HT       0.417000        1.0080           0
     28452 WT2      335      TIP3     H2       HT       0.417000        1.0080           0
     28453 WT2      337      TIP3     OH2      OT      -0.834000       15.9994           0
     28454 WT2      337      TIP3     H1       HT       0.417000        1.0080           0
     28455 WT2      337      TIP3     H2       HT       0.417000        1.0080           0
     28456 WT2      338      TIP3     OH2      OT      -0.834000       15.9994           0
     28457 WT2      338      TIP3     H1       HT       0.417000        1.0080           0
     28458 WT2      338      TIP3     H2       HT       0.417000        1.0080           0
     28459 WT2      339      TIP3     OH2      OT      -0.834000       15.9994           0
     28460 WT2      339      TIP3     H1       HT       0.417000        1.0080           0
     28461 WT2      339      TIP3     H2       HT       0.417000        1.0080           0
     28462 WT2      340      TIP3     OH2      OT      -0.834000       15.9994           0
     28463 WT2      340      TIP3     H1       HT       0.417000        1.0080           0
     28464 WT2      340      TIP3     H2       HT       0.417000        1.0080           0
     28465 WT2      341      TIP3     OH2      OT      -0.834000       15.9994           0
     28466 WT2      341      TIP3     H1       HT       0.417000        1.0080           0
     28467 WT2      341      TIP3     H2       HT       0.417000        1.0080           0
     28468 WT2      343      TIP3     OH2      OT      -0.834000       15.9994           0
     28469 WT2      343      TIP3     H1       HT       0.417000        1.0080           0
     28470 WT2      343      TIP3     H2       HT       0.417000        1.0080           0
     28471 WT2      344      TIP3     OH2      OT      -0.834000       15.9994           0
     28472 WT2      344      TIP3     H1       HT       0.417000        1.0080           0
     28473 WT2      344      TIP3     H2       HT       0.417000        1.0080           0
     28474 WT2      346      TIP3     OH2      OT      -0.834000       15.9994           0
     28475 WT2      346      TIP3     H1       HT       0.417000        1.0080           0
     28476 WT2      346      TIP3     H2       HT       0.417000        1.0080           0
     28477 WT2      361      TIP3     OH2      OT      -0.834000       15.9994           0
     28478 WT2      361      TIP3     H1       HT       0.417000        1.0080           0
     28479 WT2      361      TIP3     H2       HT       0.417000        1.0080           0
     28480 WT2      362      TIP3     OH2      OT      -0.834000       15.9994           0
     28481 WT2      362      TIP3     H1       HT       0.417000        1.0080           0
     28482 WT2      362      TIP3     H2       HT       0.417000        1.0080           0
     28483 WT2      364      TIP3     OH2      OT      -0.834000       15.9994           0
     28484 WT2      364      TIP3     H1       HT       0.417000        1.0080           0
     28485 WT2      364      TIP3     H2       HT       0.417000        1.0080           0
     28486 WT2      375      TIP3     OH2      OT      -0.834000       15.9994           0
     28487 WT2      375      TIP3     H1       HT       0.417000        1.0080           0
     28488 WT2      375      TIP3     H2       HT       0.417000        1.0080           0
     28489 WT2      378      TIP3     OH2      OT      -0.834000       15.9994           0
     28490 WT2      378      TIP3     H1       HT       0.417000        1.0080           0
     28491 WT2      378      TIP3     H2       HT       0.417000        1.0080           0
     28492 WT2      381      TIP3     OH2      OT      -0.834000       15.9994           0
     28493 WT2      381      TIP3     H1       HT       0.417000        1.0080           0
     28494 WT2      381      TIP3     H2       HT       0.417000        1.0080           0
     28495 WT2      383      TIP3     OH2      OT      -0.834000       15.9994           0
     28496 WT2      383      TIP3     H1       HT       0.417000        1.0080           0
     28497 WT2      383      TIP3     H2       HT       0.417000        1.0080           0
     28498 WT2      384      TIP3     OH2      OT      -0.834000       15.9994           0
     28499 WT2      384      TIP3     H1       HT       0.417000        1.0080           0
     28500 WT2      384      TIP3     H2       HT       0.417000        1.0080           0
     28501 WT2      385      TIP3     OH2      OT      -0.834000       15.9994           0
     28502 WT2      385      TIP3     H1       HT       0.417000        1.0080           0
     28503 WT2      385      TIP3     H2       HT       0.417000        1.0080           0
     28504 WT2      387      TIP3     OH2      OT      -0.834000       15.9994           0
     28505 WT2      387      TIP3     H1       HT       0.417000        1.0080           0
     28506 WT2      387      TIP3     H2       HT       0.417000        1.0080           0
     28507 WT2      392      TIP3     OH2      OT      -0.834000       15.9994           0
     28508 WT2      392      TIP3     H1       HT       0.417000        1.0080           0
     28509 WT2      392      TIP3     H2       HT       0.417000        1.0080           0
     28510 WT2      398      TIP3     OH2      OT      -0.834000       15.9994           0
     28511 WT2      398      TIP3     H1       HT       0.417000        1.0080           0
     28512 WT2      398      TIP3     H2       HT       0.417000        1.0080           0
     28513 WT2      401      TIP3     OH2      OT      -0.834000       15.9994           0
     28514 WT2      401      TIP3     H1       HT       0.417000        1.0080           0
     28515 WT2      401      TIP3     H2       HT       0.417000        1.0080           0
     28516 WT2      403      TIP3     OH2      OT      -0.834000       15.9994           0
     28517 WT2      403      TIP3     H1       HT       0.417000        1.0080           0
     28518 WT2      403      TIP3     H2       HT       0.417000        1.0080           0
     28519 WT2      404      TIP3     OH2      OT      -0.834000       15.9994           0
     28520 WT2      404      TIP3     H1       HT       0.417000        1.0080           0
     28521 WT2      404      TIP3     H2       HT       0.417000        1.0080           0
     28522 WT2      405      TIP3     OH2      OT      -0.834000       15.9994           0
     28523 WT2      405      TIP3     H1       HT       0.417000        1.0080           0
     28524 WT2      405      TIP3     H2       HT       0.417000        1.0080           0
     28525 WT2      406      TIP3     OH2      OT      -0.834000       15.9994           0
     28526 WT2      406      TIP3     H1       HT       0.417000        1.0080           0
     28527 WT2      406      TIP3     H2       HT       0.417000        1.0080           0
     28528 WT2      407      TIP3     OH2      OT      -0.834000       15.9994           0
     28529 WT2      407      TIP3     H1       HT       0.417000        1.0080           0
     28530 WT2      407      TIP3     H2       HT       0.417000        1.0080           0
     28531 WT2      408      TIP3     OH2      OT      -0.834000       15.9994           0
     28532 WT2      408      TIP3     H1       HT       0.417000        1.0080           0
     28533 WT2      408      TIP3     H2       HT       0.417000        1.0080           0
     28534 WT2      412      TIP3     OH2      OT      -0.834000       15.9994           0
     28535 WT2      412      TIP3     H1       HT       0.417000        1.0080           0
     28536 WT2      412      TIP3     H2       HT       0.417000        1.0080           0
     28537 WT2      416      TIP3     OH2      OT      -0.834000       15.9994           0
     28538 WT2      416      TIP3     H1       HT       0.417000        1.0080           0
     28539 WT2      416      TIP3     H2       HT       0.417000        1.0080           0
     28540 WT2      420      TIP3     OH2      OT      -0.834000       15.9994           0
     28541 WT2      420      TIP3     H1       HT       0.417000        1.0080           0
     28542 WT2      420      TIP3     H2       HT       0.417000        1.0080           0
     28543 WT2      424      TIP3     OH2      OT      -0.834000       15.9994           0
     28544 WT2      424      TIP3     H1       HT       0.417000        1.0080           0
     28545 WT2      424      TIP3     H2       HT       0.417000        1.0080           0
     28546 WT2      425      TIP3     OH2      OT      -0.834000       15.9994           0
     28547 WT2      425      TIP3     H1       HT       0.417000        1.0080           0
     28548 WT2      425      TIP3     H2       HT       0.417000        1.0080           0
     28549 WT2      426      TIP3     OH2      OT      -0.834000       15.9994           0
     28550 WT2      426      TIP3     H1       HT       0.417000        1.0080           0
     28551 WT2      426      TIP3     H2       HT       0.417000        1.0080           0
     28552 WT2      427      TIP3     OH2      OT      -0.834000       15.9994           0
     28553 WT2      427      TIP3     H1       HT       0.417000        1.0080           0
     28554 WT2      427      TIP3     H2       HT       0.417000        1.0080           0
     28555 WT2      430      TIP3     OH2      OT      -0.834000       15.9994           0
     28556 WT2      430      TIP3     H1       HT       0.417000        1.0080           0
     28557 WT2      430      TIP3     H2       HT       0.417000        1.0080           0
     28558 WT2      439      TIP3     OH2      OT      -0.834000       15.9994           0
     28559 WT2      439      TIP3     H1       HT       0.417000        1.0080           0
     28560 WT2      439      TIP3     H2       HT       0.417000        1.0080           0
     28561 WT2      443      TIP3     OH2      OT      -0.834000       15.9994           0
     28562 WT2      443      TIP3     H1       HT       0.417000        1.0080           0
     28563 WT2      443      TIP3     H2       HT       0.417000        1.0080           0
     28564 WT2      444      TIP3     OH2      OT      -0.834000       15.9994           0
     28565 WT2      444      TIP3     H1       HT       0.417000        1.0080           0
     28566 WT2      444      TIP3     H2       HT       0.417000        1.0080           0
     28567 WT2      445      TIP3     OH2      OT      -0.834000       15.9994           0
     28568 WT2      445      TIP3     H1       HT       0.417000        1.0080           0
     28569 WT2      445      TIP3     H2       HT       0.417000        1.0080           0
     28570 WT2      446      TIP3     OH2      OT      -0.834000       15.9994           0
     28571 WT2      446      TIP3     H1       HT       0.417000        1.0080           0
     28572 WT2      446      TIP3     H2       HT       0.417000        1.0080           0
     28573 WT2      447      TIP3     OH2      OT      -0.834000       15.9994           0
     28574 WT2      447      TIP3     H1       HT       0.417000        1.0080           0
     28575 WT2      447      TIP3     H2       HT       0.417000        1.0080           0
     28576 WT2      450      TIP3     OH2      OT      -0.834000       15.9994           0
     28577 WT2      450      TIP3     H1       HT       0.417000        1.0080           0
     28578 WT2      450      TIP3     H2       HT       0.417000        1.0080           0
     28579 WT2      460      TIP3     OH2      OT      -0.834000       15.9994           0
     28580 WT2      460      TIP3     H1       HT       0.417000        1.0080           0
     28581 WT2      460      TIP3     H2       HT       0.417000        1.0080           0
     28582 WT2      465      TIP3     OH2      OT      -0.834000       15.9994           0
     28583 WT2      465      TIP3     H1       HT       0.417000        1.0080           0
     28584 WT2      465      TIP3     H2       HT       0.417000        1.0080           0
     28585 WT2      466      TIP3     OH2      OT      -0.834000       15.9994           0
     28586 WT2      466      TIP3     H1       HT       0.417000        1.0080           0
     28587 WT2      466      TIP3     H2       HT       0.417000        1.0080           0
     28588 WT2      467      TIP3     OH2      OT      -0.834000       15.9994           0
     28589 WT2      467      TIP3     H1       HT       0.417000        1.0080           0
     28590 WT2      467      TIP3     H2       HT       0.417000        1.0080           0
     28591 WT2      468      TIP3     OH2      OT      -0.834000       15.9994           0
     28592 WT2      468      TIP3     H1       HT       0.417000        1.0080           0
     28593 WT2      468      TIP3     H2       HT       0.417000        1.0080           0
     28594 WT2      469      TIP3     OH2      OT      -0.834000       15.9994           0
     28595 WT2      469      TIP3     H1       HT       0.417000        1.0080           0
     28596 WT2      469      TIP3     H2       HT       0.417000        1.0080           0
     28597 WT2      470      TIP3     OH2      OT      -0.834000       15.9994           0
     28598 WT2      470      TIP3     H1       HT       0.417000        1.0080           0
     28599 WT2      470      TIP3     H2       HT       0.417000        1.0080           0
     28600 WT2      472      TIP3     OH2      OT      -0.834000       15.9994           0
     28601 WT2      472      TIP3     H1       HT       0.417000        1.0080           0
     28602 WT2      472      TIP3     H2       HT       0.417000        1.0080           0
     28603 WT2      478      TIP3     OH2      OT      -0.834000       15.9994           0
     28604 WT2      478      TIP3     H1       HT       0.417000        1.0080           0
     28605 WT2      478      TIP3     H2       HT       0.417000        1.0080           0
     28606 WT2      483      TIP3     OH2      OT      -0.834000       15.9994           0
     28607 WT2      483      TIP3     H1       HT       0.417000        1.0080           0
     28608 WT2      483      TIP3     H2       HT       0.417000        1.0080           0
     28609 WT2      484      TIP3     OH2      OT      -0.834000       15.9994           0
     28610 WT2      484      TIP3     H1       HT       0.417000        1.0080           0
     28611 WT2      484      TIP3     H2       HT       0.417000        1.0080           0
     28612 WT2      485      TIP3     OH2      OT      -0.834000       15.9994           0
     28613 WT2      485      TIP3     H1       HT       0.417000        1.0080           0
     28614 WT2      485      TIP3     H2       HT       0.417000        1.0080           0
     28615 WT2      486      TIP3     OH2      OT      -0.834000       15.9994           0
     28616 WT2      486      TIP3     H1       HT       0.417000        1.0080           0
     28617 WT2      486      TIP3     H2       HT       0.417000        1.0080           0
     28618 WT2      488      TIP3     OH2      OT      -0.834000       15.9994           0
     28619 WT2      488      TIP3     H1       HT       0.417000        1.0080           0
     28620 WT2      488      TIP3     H2       HT       0.417000        1.0080           0
     28621 WT2      489      TIP3     OH2      OT      -0.834000       15.9994           0
     28622 WT2      489      TIP3     H1       HT       0.417000        1.0080           0
     28623 WT2      489      TIP3     H2       HT       0.417000        1.0080           0
     28624 WT2      492      TIP3     OH2      OT      -0.834000       15.9994           0
     28625 WT2      492      TIP3     H1       HT       0.417000        1.0080           0
     28626 WT2      492      TIP3     H2       HT       0.417000        1.0080           0
     28627 WT2      503      TIP3     OH2      OT      -0.834000       15.9994           0
     28628 WT2      503      TIP3     H1       HT       0.417000        1.0080           0
     28629 WT2      503      TIP3     H2       HT       0.417000        1.0080           0
     28630 WT2      506      TIP3     OH2      OT      -0.834000       15.9994           0
     28631 WT2      506      TIP3     H1       HT       0.417000        1.0080           0
     28632 WT2      506      TIP3     H2       HT       0.417000        1.0080           0
     28633 WT2      507      TIP3     OH2      OT      -0.834000       15.9994           0
     28634 WT2      507      TIP3     H1       HT       0.417000        1.0080           0
     28635 WT2      507      TIP3     H2       HT       0.417000        1.0080           0
     28636 WT2      508      TIP3     OH2      OT      -0.834000       15.9994           0
     28637 WT2      508      TIP3     H1       HT       0.417000        1.0080           0
     28638 WT2      508      TIP3     H2       HT       0.417000        1.0080           0
     28639 WT2      509      TIP3     OH2      OT      -0.834000       15.9994           0
     28640 WT2      509      TIP3     H1       HT       0.417000        1.0080           0
     28641 WT2      509      TIP3     H2       HT       0.417000        1.0080           0
     28642 WT2      511      TIP3     OH2      OT      -0.834000       15.9994           0
     28643 WT2      511      TIP3     H1       HT       0.417000        1.0080           0
     28644 WT2      511      TIP3     H2       HT       0.417000        1.0080           0
     28645 WT2      512      TIP3     OH2      OT      -0.834000       15.9994           0
     28646 WT2      512      TIP3     H1       HT       0.417000        1.0080           0
     28647 WT2      512      TIP3     H2       HT       0.417000        1.0080           0
     28648 WT2      513      TIP3     OH2      OT      -0.834000       15.9994           0
     28649 WT2      513      TIP3     H1       HT       0.417000        1.0080           0
     28650 WT2      513      TIP3     H2       HT       0.417000        1.0080           0
     28651 WT2      517      TIP3     OH2      OT      -0.834000       15.9994           0
     28652 WT2      517      TIP3     H1       HT       0.417000        1.0080           0
     28653 WT2      517      TIP3     H2       HT       0.417000        1.0080           0
     28654 WT2      528      TIP3     OH2      OT      -0.834000       15.9994           0
     28655 WT2      528      TIP3     H1       HT       0.417000        1.0080           0
     28656 WT2      528      TIP3     H2       HT       0.417000        1.0080           0
     28657 WT2      529      TIP3     OH2      OT      -0.834000       15.9994           0
     28658 WT2      529      TIP3     H1       HT       0.417000        1.0080           0
     28659 WT2      529      TIP3     H2       HT       0.417000        1.0080           0
     28660 WT2      530      TIP3     OH2      OT      -0.834000       15.9994           0
     28661 WT2      530      TIP3     H1       HT       0.417000        1.0080           0
     28662 WT2      530      TIP3     H2       HT       0.417000        1.0080           0
     28663 WT2      531      TIP3     OH2      OT      -0.834000       15.9994           0
     28664 WT2      531      TIP3     H1       HT       0.417000        1.0080           0
     28665 WT2      531      TIP3     H2       HT       0.417000        1.0080           0
     28666 WT2      532      TIP3     OH2      OT      -0.834000       15.9994           0
     28667 WT2      532      TIP3     H1       HT       0.417000        1.0080           0
     28668 WT2      532      TIP3     H2       HT       0.417000        1.0080           0
     28669 WT2      533      TIP3     OH2      OT      -0.834000       15.9994           0
     28670 WT2      533      TIP3     H1       HT       0.417000        1.0080           0
     28671 WT2      533      TIP3     H2       HT       0.417000        1.0080           0
     28672 WT2      534      TIP3     OH2      OT      -0.834000       15.9994           0
     28673 WT2      534      TIP3     H1       HT       0.417000        1.0080           0
     28674 WT2      534      TIP3     H2       HT       0.417000        1.0080           0
     28675 WT2      535      TIP3     OH2      OT      -0.834000       15.9994           0
     28676 WT2      535      TIP3     H1       HT       0.417000        1.0080           0
     28677 WT2      535      TIP3     H2       HT       0.417000        1.0080           0
     28678 WT2      543      TIP3     OH2      OT      -0.834000       15.9994           0
     28679 WT2      543      TIP3     H1       HT       0.417000        1.0080           0
     28680 WT2      543      TIP3     H2       HT       0.417000        1.0080           0
     28681 WT2      547      TIP3     OH2      OT      -0.834000       15.9994           0
     28682 WT2      547      TIP3     H1       HT       0.417000        1.0080           0
     28683 WT2      547      TIP3     H2       HT       0.417000        1.0080           0
     28684 WT2      549      TIP3     OH2      OT      -0.834000       15.9994           0
     28685 WT2      549      TIP3     H1       HT       0.417000        1.0080           0
     28686 WT2      549      TIP3     H2       HT       0.417000        1.0080           0
     28687 WT2      550      TIP3     OH2      OT      -0.834000       15.9994           0
     28688 WT2      550      TIP3     H1       HT       0.417000        1.0080           0
     28689 WT2      550      TIP3     H2       HT       0.417000        1.0080           0
     28690 WT2      551      TIP3     OH2      OT      -0.834000       15.9994           0
     28691 WT2      551      TIP3     H1       HT       0.417000        1.0080           0
     28692 WT2      551      TIP3     H2       HT       0.417000        1.0080           0
     28693 WT2      554      TIP3     OH2      OT      -0.834000       15.9994           0
     28694 WT2      554      TIP3     H1       HT       0.417000        1.0080           0
     28695 WT2      554      TIP3     H2       HT       0.417000        1.0080           0
     28696 WT2      558      TIP3     OH2      OT      -0.834000       15.9994           0
     28697 WT2      558      TIP3     H1       HT       0.417000        1.0080           0
     28698 WT2      558      TIP3     H2       HT       0.417000        1.0080           0
     28699 WT2      562      TIP3     OH2      OT      -0.834000       15.9994           0
     28700 WT2      562      TIP3     H1       HT       0.417000        1.0080           0
     28701 WT2      562      TIP3     H2       HT       0.417000        1.0080           0
     28702 WT2      568      TIP3     OH2      OT      -0.834000       15.9994           0
     28703 WT2      568      TIP3     H1       HT       0.417000        1.0080           0
     28704 WT2      568      TIP3     H2       HT       0.417000        1.0080           0
     28705 WT2      570      TIP3     OH2      OT      -0.834000       15.9994           0
     28706 WT2      570      TIP3     H1       HT       0.417000        1.0080           0
     28707 WT2      570      TIP3     H2       HT       0.417000        1.0080           0
     28708 WT2      572      TIP3     OH2      OT      -0.834000       15.9994           0
     28709 WT2      572      TIP3     H1       HT       0.417000        1.0080           0
     28710 WT2      572      TIP3     H2       HT       0.417000        1.0080           0
     28711 WT2      573      TIP3     OH2      OT      -0.834000       15.9994           0
     28712 WT2      573      TIP3     H1       HT       0.417000        1.0080           0
     28713 WT2      573      TIP3     H2       HT       0.417000        1.0080           0
     28714 WT2      574      TIP3     OH2      OT      -0.834000       15.9994           0
     28715 WT2      574      TIP3     H1       HT       0.417000        1.0080           0
     28716 WT2      574      TIP3     H2       HT       0.417000        1.0080           0
     28717 WT2      575      TIP3     OH2      OT      -0.834000       15.9994           0
     28718 WT2      575      TIP3     H1       HT       0.417000        1.0080           0
     28719 WT2      575      TIP3     H2       HT       0.417000        1.0080           0
     28720 WT2      576      TIP3     OH2      OT      -0.834000       15.9994           0
     28721 WT2      576      TIP3     H1       HT       0.417000        1.0080           0
     28722 WT2      576      TIP3     H2       HT       0.417000        1.0080           0
     28723 WT2      584      TIP3     OH2      OT      -0.834000       15.9994           0
     28724 WT2      584      TIP3     H1       HT       0.417000        1.0080           0
     28725 WT2      584      TIP3     H2       HT       0.417000        1.0080           0
     28726 WT2      588      TIP3     OH2      OT      -0.834000       15.9994           0
     28727 WT2      588      TIP3     H1       HT       0.417000        1.0080           0
     28728 WT2      588      TIP3     H2       HT       0.417000        1.0080           0
     28729 WT2      591      TIP3     OH2      OT      -0.834000       15.9994           0
     28730 WT2      591      TIP3     H1       HT       0.417000        1.0080           0
     28731 WT2      591      TIP3     H2       HT       0.417000        1.0080           0
     28732 WT2      592      TIP3     OH2      OT      -0.834000       15.9994           0
     28733 WT2      592      TIP3     H1       HT       0.417000        1.0080           0
     28734 WT2      592      TIP3     H2       HT       0.417000        1.0080           0
     28735 WT2      593      TIP3     OH2      OT      -0.834000       15.9994           0
     28736 WT2      593      TIP3     H1       HT       0.417000        1.0080           0
     28737 WT2      593      TIP3     H2       HT       0.417000        1.0080           0
     28738 WT2      594      TIP3     OH2      OT      -0.834000       15.9994           0
     28739 WT2      594      TIP3     H1       HT       0.417000        1.0080           0
     28740 WT2      594      TIP3     H2       HT       0.417000        1.0080           0
     28741 WT2      595      TIP3     OH2      OT      -0.834000       15.9994           0
     28742 WT2      595      TIP3     H1       HT       0.417000        1.0080           0
     28743 WT2      595      TIP3     H2       HT       0.417000        1.0080           0
     28744 WT2      596      TIP3     OH2      OT      -0.834000       15.9994           0
     28745 WT2      596      TIP3     H1       HT       0.417000        1.0080           0
     28746 WT2      596      TIP3     H2       HT       0.417000        1.0080           0
     28747 WT2      597      TIP3     OH2      OT      -0.834000       15.9994           0
     28748 WT2      597      TIP3     H1       HT       0.417000        1.0080           0
     28749 WT2      597      TIP3     H2       HT       0.417000        1.0080           0
     28750 WT2      611      TIP3     OH2      OT      -0.834000       15.9994           0
     28751 WT2      611      TIP3     H1       HT       0.417000        1.0080           0
     28752 WT2      611      TIP3     H2       HT       0.417000        1.0080           0
     28753 WT2      612      TIP3     OH2      OT      -0.834000       15.9994           0
     28754 WT2      612      TIP3     H1       HT       0.417000        1.0080           0
     28755 WT2      612      TIP3     H2       HT       0.417000        1.0080           0
     28756 WT2      613      TIP3     OH2      OT      -0.834000       15.9994           0
     28757 WT2      613      TIP3     H1       HT       0.417000        1.0080           0
     28758 WT2      613      TIP3     H2       HT       0.417000        1.0080           0
     28759 WT2      616      TIP3     OH2      OT      -0.834000       15.9994           0
     28760 WT2      616      TIP3     H1       HT       0.417000        1.0080           0
     28761 WT2      616      TIP3     H2       HT       0.417000        1.0080           0
     28762 WT2      617      TIP3     OH2      OT      -0.834000       15.9994           0
     28763 WT2      617      TIP3     H1       HT       0.417000        1.0080           0
     28764 WT2      617      TIP3     H2       HT       0.417000        1.0080           0
     28765 WT2      619      TIP3     OH2      OT      -0.834000       15.9994           0
     28766 WT2      619      TIP3     H1       HT       0.417000        1.0080           0
     28767 WT2      619      TIP3     H2       HT       0.417000        1.0080           0
     28768 WT2      621      TIP3     OH2      OT      -0.834000       15.9994           0
     28769 WT2      621      TIP3     H1       HT       0.417000        1.0080           0
     28770 WT2      621      TIP3     H2       HT       0.417000        1.0080           0
     28771 WT2      632      TIP3     OH2      OT      -0.834000       15.9994           0
     28772 WT2      632      TIP3     H1       HT       0.417000        1.0080           0
     28773 WT2      632      TIP3     H2       HT       0.417000        1.0080           0
     28774 WT2      634      TIP3     OH2      OT      -0.834000       15.9994           0
     28775 WT2      634      TIP3     H1       HT       0.417000        1.0080           0
     28776 WT2      634      TIP3     H2       HT       0.417000        1.0080           0
     28777 WT2      635      TIP3     OH2      OT      -0.834000       15.9994           0
     28778 WT2      635      TIP3     H1       HT       0.417000        1.0080           0
     28779 WT2      635      TIP3     H2       HT       0.417000        1.0080           0
     28780 WT2      636      TIP3     OH2      OT      -0.834000       15.9994           0
     28781 WT2      636      TIP3     H1       HT       0.417000        1.0080           0
     28782 WT2      636      TIP3     H2       HT       0.417000        1.0080           0
     28783 WT2      638      TIP3     OH2      OT      -0.834000       15.9994           0
     28784 WT2      638      TIP3     H1       HT       0.417000        1.0080           0
     28785 WT2      638      TIP3     H2       HT       0.417000        1.0080           0
     28786 WT2      640      TIP3     OH2      OT      -0.834000       15.9994           0
     28787 WT2      640      TIP3     H1       HT       0.417000        1.0080           0
     28788 WT2      640      TIP3     H2       HT       0.417000        1.0080           0
     28789 WT2      653      TIP3     OH2      OT      -0.834000       15.9994           0
     28790 WT2      653      TIP3     H1       HT       0.417000        1.0080           0
     28791 WT2      653      TIP3     H2       HT       0.417000        1.0080           0
     28792 WT2      654      TIP3     OH2      OT      -0.834000       15.9994           0
     28793 WT2      654      TIP3     H1       HT       0.417000        1.0080           0
     28794 WT2      654      TIP3     H2       HT       0.417000        1.0080           0
     28795 WT2      656      TIP3     OH2      OT      -0.834000       15.9994           0
     28796 WT2      656      TIP3     H1       HT       0.417000        1.0080           0
     28797 WT2      656      TIP3     H2       HT       0.417000        1.0080           0
     28798 WT2      657      TIP3     OH2      OT      -0.834000       15.9994           0
     28799 WT2      657      TIP3     H1       HT       0.417000        1.0080           0
     28800 WT2      657      TIP3     H2       HT       0.417000        1.0080           0
     28801 WT2      658      TIP3     OH2      OT      -0.834000       15.9994           0
     28802 WT2      658      TIP3     H1       HT       0.417000        1.0080           0
     28803 WT2      658      TIP3     H2       HT       0.417000        1.0080           0
     28804 WT2      659      TIP3     OH2      OT      -0.834000       15.9994           0
     28805 WT2      659      TIP3     H1       HT       0.417000        1.0080           0
     28806 WT2      659      TIP3     H2       HT       0.417000        1.0080           0
     28807 WT2      660      TIP3     OH2      OT      -0.834000       15.9994           0
     28808 WT2      660      TIP3     H1       HT       0.417000        1.0080           0
     28809 WT2      660      TIP3     H2       HT       0.417000        1.0080           0
     28810 WT2      672      TIP3     OH2      OT      -0.834000       15.9994           0
     28811 WT2      672      TIP3     H1       HT       0.417000        1.0080           0
     28812 WT2      672      TIP3     H2       HT       0.417000        1.0080           0
     28813 WT2      674      TIP3     OH2      OT      -0.834000       15.9994           0
     28814 WT2      674      TIP3     H1       HT       0.417000        1.0080           0
     28815 WT2      674      TIP3     H2       HT       0.417000        1.0080           0
     28816 WT2      675      TIP3     OH2      OT      -0.834000       15.9994           0
     28817 WT2      675      TIP3     H1       HT       0.417000        1.0080           0
     28818 WT2      675      TIP3     H2       HT       0.417000        1.0080           0
     28819 WT2      676      TIP3     OH2      OT      -0.834000       15.9994           0
     28820 WT2      676      TIP3     H1       HT       0.417000        1.0080           0
     28821 WT2      676      TIP3     H2       HT       0.417000        1.0080           0
     28822 WT2      677      TIP3     OH2      OT      -0.834000       15.9994           0
     28823 WT2      677      TIP3     H1       HT       0.417000        1.0080           0
     28824 WT2      677      TIP3     H2       HT       0.417000        1.0080           0
     28825 WT2      680      TIP3     OH2      OT      -0.834000       15.9994           0
     28826 WT2      680      TIP3     H1       HT       0.417000        1.0080           0
     28827 WT2      680      TIP3     H2       HT       0.417000        1.0080           0
     28828 WT2      681      TIP3     OH2      OT      -0.834000       15.9994           0
     28829 WT2      681      TIP3     H1       HT       0.417000        1.0080           0
     28830 WT2      681      TIP3     H2       HT       0.417000        1.0080           0
     28831 WT2      682      TIP3     OH2      OT      -0.834000       15.9994           0
     28832 WT2      682      TIP3     H1       HT       0.417000        1.0080           0
     28833 WT2      682      TIP3     H2       HT       0.417000        1.0080           0
     28834 WT2      683      TIP3     OH2      OT      -0.834000       15.9994           0
     28835 WT2      683      TIP3     H1       HT       0.417000        1.0080           0
     28836 WT2      683      TIP3     H2       HT       0.417000        1.0080           0
     28837 WT2      692      TIP3     OH2      OT      -0.834000       15.9994           0
     28838 WT2      692      TIP3     H1       HT       0.417000        1.0080           0
     28839 WT2      692      TIP3     H2       HT       0.417000        1.0080           0
     28840 WT2      695      TIP3     OH2      OT      -0.834000       15.9994           0
     28841 WT2      695      TIP3     H1       HT       0.417000        1.0080           0
     28842 WT2      695      TIP3     H2       HT       0.417000        1.0080           0
     28843 WT2      696      TIP3     OH2      OT      -0.834000       15.9994           0
     28844 WT2      696      TIP3     H1       HT       0.417000        1.0080           0
     28845 WT2      696      TIP3     H2       HT       0.417000        1.0080           0
     28846 WT2      697      TIP3     OH2      OT      -0.834000       15.9994           0
     28847 WT2      697      TIP3     H1       HT       0.417000        1.0080           0
     28848 WT2      697      TIP3     H2       HT       0.417000        1.0080           0
     28849 WT2      698      TIP3     OH2      OT      -0.834000       15.9994           0
     28850 WT2      698      TIP3     H1       HT       0.417000        1.0080           0
     28851 WT2      698      TIP3     H2       HT       0.417000        1.0080           0
     28852 WT2      699      TIP3     OH2      OT      -0.834000       15.9994           0
     28853 WT2      699      TIP3     H1       HT       0.417000        1.0080           0
     28854 WT2      699      TIP3     H2       HT       0.417000        1.0080           0
     28855 WT2      701      TIP3     OH2      OT      -0.834000       15.9994           0
     28856 WT2      701      TIP3     H1       HT       0.417000        1.0080           0
     28857 WT2      701      TIP3     H2       HT       0.417000        1.0080           0
     28858 WT2      715      TIP3     OH2      OT      -0.834000       15.9994           0
     28859 WT2      715      TIP3     H1       HT       0.417000        1.0080           0
     28860 WT2      715      TIP3     H2       HT       0.417000        1.0080           0
     28861 WT2      716      TIP3     OH2      OT      -0.834000       15.9994           0
     28862 WT2      716      TIP3     H1       HT       0.417000        1.0080           0
     28863 WT2      716      TIP3     H2       HT       0.417000        1.0080           0
     28864 WT2      717      TIP3     OH2      OT      -0.834000       15.9994           0
     28865 WT2      717      TIP3     H1       HT       0.417000        1.0080           0
     28866 WT2      717      TIP3     H2       HT       0.417000        1.0080           0
     28867 WT2      718      TIP3     OH2      OT      -0.834000       15.9994           0
     28868 WT2      718      TIP3     H1       HT       0.417000        1.0080           0
     28869 WT2      718      TIP3     H2       HT       0.417000        1.0080           0
     28870 WT2      719      TIP3     OH2      OT      -0.834000       15.9994           0
     28871 WT2      719      TIP3     H1       HT       0.417000        1.0080           0
     28872 WT2      719      TIP3     H2       HT       0.417000        1.0080           0
     28873 WT2      720      TIP3     OH2      OT      -0.834000       15.9994           0
     28874 WT2      720      TIP3     H1       HT       0.417000        1.0080           0
     28875 WT2      720      TIP3     H2       HT       0.417000        1.0080           0
     28876 WT2      721      TIP3     OH2      OT      -0.834000       15.9994           0
     28877 WT2      721      TIP3     H1       HT       0.417000        1.0080           0
     28878 WT2      721      TIP3     H2       HT       0.417000        1.0080           0
     28879 WT2      735      TIP3     OH2      OT      -0.834000       15.9994           0
     28880 WT2      735      TIP3     H1       HT       0.417000        1.0080           0
     28881 WT2      735      TIP3     H2       HT       0.417000        1.0080           0
     28882 WT2      736      TIP3     OH2      OT      -0.834000       15.9994           0
     28883 WT2      736      TIP3     H1       HT       0.417000        1.0080           0
     28884 WT2      736      TIP3     H2       HT       0.417000        1.0080           0
     28885 WT2      738      TIP3     OH2      OT      -0.834000       15.9994           0
     28886 WT2      738      TIP3     H1       HT       0.417000        1.0080           0
     28887 WT2      738      TIP3     H2       HT       0.417000        1.0080           0
     28888 WT2      739      TIP3     OH2      OT      -0.834000       15.9994           0
     28889 WT2      739      TIP3     H1       HT       0.417000        1.0080           0
     28890 WT2      739      TIP3     H2       HT       0.417000        1.0080           0
     28891 WT2      740      TIP3     OH2      OT      -0.834000       15.9994           0
     28892 WT2      740      TIP3     H1       HT       0.417000        1.0080           0
     28893 WT2      740      TIP3     H2       HT       0.417000        1.0080           0
     28894 WT2      741      TIP3     OH2      OT      -0.834000       15.9994           0
     28895 WT2      741      TIP3     H1       HT       0.417000        1.0080           0
     28896 WT2      741      TIP3     H2       HT       0.417000        1.0080           0
     28897 WT2      744      TIP3     OH2      OT      -0.834000       15.9994           0
     28898 WT2      744      TIP3     H1       HT       0.417000        1.0080           0
     28899 WT2      744      TIP3     H2       HT       0.417000        1.0080           0
     28900 WT2      746      TIP3     OH2      OT      -0.834000       15.9994           0
     28901 WT2      746      TIP3     H1       HT       0.417000        1.0080           0
     28902 WT2      746      TIP3     H2       HT       0.417000        1.0080           0
     28903 WT2      757      TIP3     OH2      OT      -0.834000       15.9994           0
     28904 WT2      757      TIP3     H1       HT       0.417000        1.0080           0
     28905 WT2      757      TIP3     H2       HT       0.417000        1.0080           0
     28906 WT2      758      TIP3     OH2      OT      -0.834000       15.9994           0
     28907 WT2      758      TIP3     H1       HT       0.417000        1.0080           0
     28908 WT2      758      TIP3     H2       HT       0.417000        1.0080           0
     28909 WT2      759      TIP3     OH2      OT      -0.834000       15.9994           0
     28910 WT2      759      TIP3     H1       HT       0.417000        1.0080           0
     28911 WT2      759      TIP3     H2       HT       0.417000        1.0080           0
     28912 WT2      760      TIP3     OH2      OT      -0.834000       15.9994           0
     28913 WT2      760      TIP3     H1       HT       0.417000        1.0080           0
     28914 WT2      760      TIP3     H2       HT       0.417000        1.0080           0
     28915 WT2      761      TIP3     OH2      OT      -0.834000       15.9994           0
     28916 WT2      761      TIP3     H1       HT       0.417000        1.0080           0
     28917 WT2      761      TIP3     H2       HT       0.417000        1.0080           0
     28918 WT2      765      TIP3     OH2      OT      -0.834000       15.9994           0
     28919 WT2      765      TIP3     H1       HT       0.417000        1.0080           0
     28920 WT2      765      TIP3     H2       HT       0.417000        1.0080           0
     28921 WT2      766      TIP3     OH2      OT      -0.834000       15.9994           0
     28922 WT2      766      TIP3     H1       HT       0.417000        1.0080           0
     28923 WT2      766      TIP3     H2       HT       0.417000        1.0080           0
     28924 WT2      776      TIP3     OH2      OT      -0.834000       15.9994           0
     28925 WT2      776      TIP3     H1       HT       0.417000        1.0080           0
     28926 WT2      776      TIP3     H2       HT       0.417000        1.0080           0
     28927 WT2      778      TIP3     OH2      OT      -0.834000       15.9994           0
     28928 WT2      778      TIP3     H1       HT       0.417000        1.0080           0
     28929 WT2      778      TIP3     H2       HT       0.417000        1.0080           0
     28930 WT2      780      TIP3     OH2      OT      -0.834000       15.9994           0
     28931 WT2      780      TIP3     H1       HT       0.417000        1.0080           0
     28932 WT2      780      TIP3     H2       HT       0.417000        1.0080           0
     28933 WT2      781      TIP3     OH2      OT      -0.834000       15.9994           0
     28934 WT2      781      TIP3     H1       HT       0.417000        1.0080           0
     28935 WT2      781      TIP3     H2       HT       0.417000        1.0080           0
     28936 WT2      782      TIP3     OH2      OT      -0.834000       15.9994           0
     28937 WT2      782      TIP3     H1       HT       0.417000        1.0080           0
     28938 WT2      782      TIP3     H2       HT       0.417000        1.0080           0
     28939 WT2      783      TIP3     OH2      OT      -0.834000       15.9994           0
     28940 WT2      783      TIP3     H1       HT       0.417000        1.0080           0
     28941 WT2      783      TIP3     H2       HT       0.417000        1.0080           0
     28942 WT2      784      TIP3     OH2      OT      -0.834000       15.9994           0
     28943 WT2      784      TIP3     H1       HT       0.417000        1.0080           0
     28944 WT2      784      TIP3     H2       HT       0.417000        1.0080           0
     28945 WT2      785      TIP3     OH2      OT      -0.834000       15.9994           0
     28946 WT2      785      TIP3     H1       HT       0.417000        1.0080           0
     28947 WT2      785      TIP3     H2       HT       0.417000        1.0080           0
     28948 WT2      801      TIP3     OH2      OT      -0.834000       15.9994           0
     28949 WT2      801      TIP3     H1       HT       0.417000        1.0080           0
     28950 WT2      801      TIP3     H2       HT       0.417000        1.0080           0
     28951 WT2      802      TIP3     OH2      OT      -0.834000       15.9994           0
     28952 WT2      802      TIP3     H1       HT       0.417000        1.0080           0
     28953 WT2      802      TIP3     H2       HT       0.417000        1.0080           0
     28954 WT2      803      TIP3     OH2      OT      -0.834000       15.9994           0
     28955 WT2      803      TIP3     H1       HT       0.417000        1.0080           0
     28956 WT2      803      TIP3     H2       HT       0.417000        1.0080           0
     28957 WT2      804      TIP3     OH2      OT      -0.834000       15.9994           0
     28958 WT2      804      TIP3     H1       HT       0.417000        1.0080           0
     28959 WT2      804      TIP3     H2       HT       0.417000        1.0080           0
     28960 WT2      805      TIP3     OH2      OT      -0.834000       15.9994           0
     28961 WT2      805      TIP3     H1       HT       0.417000        1.0080           0
     28962 WT2      805      TIP3     H2       HT       0.417000        1.0080           0
     28963 WT2      807      TIP3     OH2      OT      -0.834000       15.9994           0
     28964 WT2      807      TIP3     H1       HT       0.417000        1.0080           0
     28965 WT2      807      TIP3     H2       HT       0.417000        1.0080           0
     28966 WT2      809      TIP3     OH2      OT      -0.834000       15.9994           0
     28967 WT2      809      TIP3     H1       HT       0.417000        1.0080           0
     28968 WT2      809      TIP3     H2       HT       0.417000        1.0080           0
     28969 WT2      817      TIP3     OH2      OT      -0.834000       15.9994           0
     28970 WT2      817      TIP3     H1       HT       0.417000        1.0080           0
     28971 WT2      817      TIP3     H2       HT       0.417000        1.0080           0
     28972 WT2      822      TIP3     OH2      OT      -0.834000       15.9994           0
     28973 WT2      822      TIP3     H1       HT       0.417000        1.0080           0
     28974 WT2      822      TIP3     H2       HT       0.417000        1.0080           0
     28975 WT2      823      TIP3     OH2      OT      -0.834000       15.9994           0
     28976 WT2      823      TIP3     H1       HT       0.417000        1.0080           0
     28977 WT2      823      TIP3     H2       HT       0.417000        1.0080           0
     28978 WT2      824      TIP3     OH2      OT      -0.834000       15.9994           0
     28979 WT2      824      TIP3     H1       HT       0.417000        1.0080           0
     28980 WT2      824      TIP3     H2       HT       0.417000        1.0080           0
     28981 WT2      825      TIP3     OH2      OT      -0.834000       15.9994           0
     28982 WT2      825      TIP3     H1       HT       0.417000        1.0080           0
     28983 WT2      825      TIP3     H2       HT       0.417000        1.0080           0
     28984 WT2      826      TIP3     OH2      OT      -0.834000       15.9994           0
     28985 WT2      826      TIP3     H1       HT       0.417000        1.0080           0
     28986 WT2      826      TIP3     H2       HT       0.417000        1.0080           0
     28987 WT2      828      TIP3     OH2      OT      -0.834000       15.9994           0
     28988 WT2      828      TIP3     H1       HT       0.417000        1.0080           0
     28989 WT2      828      TIP3     H2       HT       0.417000        1.0080           0
     28990 WT2      843      TIP3     OH2      OT      -0.834000       15.9994           0
     28991 WT2      843      TIP3     H1       HT       0.417000        1.0080           0
     28992 WT2      843      TIP3     H2       HT       0.417000        1.0080           0
     28993 WT2      844      TIP3     OH2      OT      -0.834000       15.9994           0
     28994 WT2      844      TIP3     H1       HT       0.417000        1.0080           0
     28995 WT2      844      TIP3     H2       HT       0.417000        1.0080           0
     28996 WT2      845      TIP3     OH2      OT      -0.834000       15.9994           0
     28997 WT2      845      TIP3     H1       HT       0.417000        1.0080           0
     28998 WT2      845      TIP3     H2       HT       0.417000        1.0080           0
     28999 WT2      846      TIP3     OH2      OT      -0.834000       15.9994           0
     29000 WT2      846      TIP3     H1       HT       0.417000        1.0080           0
     29001 WT2      846      TIP3     H2       HT       0.417000        1.0080           0
     29002 WT2      847      TIP3     OH2      OT      -0.834000       15.9994           0
     29003 WT2      847      TIP3     H1       HT       0.417000        1.0080           0
     29004 WT2      847      TIP3     H2       HT       0.417000        1.0080           0
     29005 WT2      848      TIP3     OH2      OT      -0.834000       15.9994           0
     29006 WT2      848      TIP3     H1       HT       0.417000        1.0080           0
     29007 WT2      848      TIP3     H2       HT       0.417000        1.0080           0
     29008 WT2      849      TIP3     OH2      OT      -0.834000       15.9994           0
     29009 WT2      849      TIP3     H1       HT       0.417000        1.0080           0
     29010 WT2      849      TIP3     H2       HT       0.417000        1.0080           0
     29011 WT2      862      TIP3     OH2      OT      -0.834000       15.9994           0
     29012 WT2      862      TIP3     H1       HT       0.417000        1.0080           0
     29013 WT2      862      TIP3     H2       HT       0.417000        1.0080           0
     29014 WT2      865      TIP3     OH2      OT      -0.834000       15.9994           0
     29015 WT2      865      TIP3     H1       HT       0.417000        1.0080           0
     29016 WT2      865      TIP3     H2       HT       0.417000        1.0080           0
     29017 WT2      866      TIP3     OH2      OT      -0.834000       15.9994           0
     29018 WT2      866      TIP3     H1       HT       0.417000        1.0080           0
     29019 WT2      866      TIP3     H2       HT       0.417000        1.0080           0
     29020 WT2      867      TIP3     OH2      OT      -0.834000       15.9994           0
     29021 WT2      867      TIP3     H1       HT       0.417000        1.0080           0
     29022 WT2      867      TIP3     H2       HT       0.417000        1.0080           0
     29023 WT2      871      TIP3     OH2      OT      -0.834000       15.9994           0
     29024 WT2      871      TIP3     H1       HT       0.417000        1.0080           0
     29025 WT2      871      TIP3     H2       HT       0.417000        1.0080           0
     29026 WT2      883      TIP3     OH2      OT      -0.834000       15.9994           0
     29027 WT2      883      TIP3     H1       HT       0.417000        1.0080           0
     29028 WT2      883      TIP3     H2       HT       0.417000        1.0080           0
     29029 WT2      885      TIP3     OH2      OT      -0.834000       15.9994           0
     29030 WT2      885      TIP3     H1       HT       0.417000        1.0080           0
     29031 WT2      885      TIP3     H2       HT       0.417000        1.0080           0
     29032 WT2      887      TIP3     OH2      OT      -0.834000       15.9994           0
     29033 WT2      887      TIP3     H1       HT       0.417000        1.0080           0
     29034 WT2      887      TIP3     H2       HT       0.417000        1.0080           0
     29035 WT2      888      TIP3     OH2      OT      -0.834000       15.9994           0
     29036 WT2      888      TIP3     H1       HT       0.417000        1.0080           0
     29037 WT2      888      TIP3     H2       HT       0.417000        1.0080           0
     29038 WT2      891      TIP3     OH2      OT      -0.834000       15.9994           0
     29039 WT2      891      TIP3     H1       HT       0.417000        1.0080           0
     29040 WT2      891      TIP3     H2       HT       0.417000        1.0080           0
     29041 WT2      905      TIP3     OH2      OT      -0.834000       15.9994           0
     29042 WT2      905      TIP3     H1       HT       0.417000        1.0080           0
     29043 WT2      905      TIP3     H2       HT       0.417000        1.0080           0
     29044 WT2      906      TIP3     OH2      OT      -0.834000       15.9994           0
     29045 WT2      906      TIP3     H1       HT       0.417000        1.0080           0
     29046 WT2      906      TIP3     H2       HT       0.417000        1.0080           0
     29047 WT2      907      TIP3     OH2      OT      -0.834000       15.9994           0
     29048 WT2      907      TIP3     H1       HT       0.417000        1.0080           0
     29049 WT2      907      TIP3     H2       HT       0.417000        1.0080           0
     29050 WT2      908      TIP3     OH2      OT      -0.834000       15.9994           0
     29051 WT2      908      TIP3     H1       HT       0.417000        1.0080           0
     29052 WT2      908      TIP3     H2       HT       0.417000        1.0080           0
     29053 WT2      909      TIP3     OH2      OT      -0.834000       15.9994           0
     29054 WT2      909      TIP3     H1       HT       0.417000        1.0080           0
     29055 WT2      909      TIP3     H2       HT       0.417000        1.0080           0
     29056 WT2      910      TIP3     OH2      OT      -0.834000       15.9994           0
     29057 WT2      910      TIP3     H1       HT       0.417000        1.0080           0
     29058 WT2      910      TIP3     H2       HT       0.417000        1.0080           0
     29059 WT2      912      TIP3     OH2      OT      -0.834000       15.9994           0
     29060 WT2      912      TIP3     H1       HT       0.417000        1.0080           0
     29061 WT2      912      TIP3     H2       HT       0.417000        1.0080           0
     29062 WT2      913      TIP3     OH2      OT      -0.834000       15.9994           0
     29063 WT2      913      TIP3     H1       HT       0.417000        1.0080           0
     29064 WT2      913      TIP3     H2       HT       0.417000        1.0080           0
     29065 WT2      915      TIP3     OH2      OT      -0.834000       15.9994           0
     29066 WT2      915      TIP3     H1       HT       0.417000        1.0080           0
     29067 WT2      915      TIP3     H2       HT       0.417000        1.0080           0
     29068 WT2      924      TIP3     OH2      OT      -0.834000       15.9994           0
     29069 WT2      924      TIP3     H1       HT       0.417000        1.0080           0
     29070 WT2      924      TIP3     H2       HT       0.417000        1.0080           0
     29071 WT2      925      TIP3     OH2      OT      -0.834000       15.9994           0
     29072 WT2      925      TIP3     H1       HT       0.417000        1.0080           0
     29073 WT2      925      TIP3     H2       HT       0.417000        1.0080           0
     29074 WT2      926      TIP3     OH2      OT      -0.834000       15.9994           0
     29075 WT2      926      TIP3     H1       HT       0.417000        1.0080           0
     29076 WT2      926      TIP3     H2       HT       0.417000        1.0080           0
     29077 WT2      927      TIP3     OH2      OT      -0.834000       15.9994           0
     29078 WT2      927      TIP3     H1       HT       0.417000        1.0080           0
     29079 WT2      927      TIP3     H2       HT       0.417000        1.0080           0
     29080 WT2      928      TIP3     OH2      OT      -0.834000       15.9994           0
     29081 WT2      928      TIP3     H1       HT       0.417000        1.0080           0
     29082 WT2      928      TIP3     H2       HT       0.417000        1.0080           0
     29083 WT2      929      TIP3     OH2      OT      -0.834000       15.9994           0
     29084 WT2      929      TIP3     H1       HT       0.417000        1.0080           0
     29085 WT2      929      TIP3     H2       HT       0.417000        1.0080           0
     29086 WT2      930      TIP3     OH2      OT      -0.834000       15.9994           0
     29087 WT2      930      TIP3     H1       HT       0.417000        1.0080           0
     29088 WT2      930      TIP3     H2       HT       0.417000        1.0080           0
     29089 WT2      932      TIP3     OH2      OT      -0.834000       15.9994           0
     29090 WT2      932      TIP3     H1       HT       0.417000        1.0080           0
     29091 WT2      932      TIP3     H2       HT       0.417000        1.0080           0
     29092 WT2      933      TIP3     OH2      OT      -0.834000       15.9994           0
     29093 WT2      933      TIP3     H1       HT       0.417000        1.0080           0
     29094 WT2      933      TIP3     H2       HT       0.417000        1.0080           0
     29095 WT2      935      TIP3     OH2      OT      -0.834000       15.9994           0
     29096 WT2      935      TIP3     H1       HT       0.417000        1.0080           0
     29097 WT2      935      TIP3     H2       HT       0.417000        1.0080           0
     29098 WT2      942      TIP3     OH2      OT      -0.834000       15.9994           0
     29099 WT2      942      TIP3     H1       HT       0.417000        1.0080           0
     29100 WT2      942      TIP3     H2       HT       0.417000        1.0080           0
     29101 WT2      947      TIP3     OH2      OT      -0.834000       15.9994           0
     29102 WT2      947      TIP3     H1       HT       0.417000        1.0080           0
     29103 WT2      947      TIP3     H2       HT       0.417000        1.0080           0
     29104 WT2      948      TIP3     OH2      OT      -0.834000       15.9994           0
     29105 WT2      948      TIP3     H1       HT       0.417000        1.0080           0
     29106 WT2      948      TIP3     H2       HT       0.417000        1.0080           0
     29107 WT2      950      TIP3     OH2      OT      -0.834000       15.9994           0
     29108 WT2      950      TIP3     H1       HT       0.417000        1.0080           0
     29109 WT2      950      TIP3     H2       HT       0.417000        1.0080           0
     29110 WT2      951      TIP3     OH2      OT      -0.834000       15.9994           0
     29111 WT2      951      TIP3     H1       HT       0.417000        1.0080           0
     29112 WT2      951      TIP3     H2       HT       0.417000        1.0080           0
     29113 WT2      952      TIP3     OH2      OT      -0.834000       15.9994           0
     29114 WT2      952      TIP3     H1       HT       0.417000        1.0080           0
     29115 WT2      952      TIP3     H2       HT       0.417000        1.0080           0
     29116 WT2      953      TIP3     OH2      OT      -0.834000       15.9994           0
     29117 WT2      953      TIP3     H1       HT       0.417000        1.0080           0
     29118 WT2      953      TIP3     H2       HT       0.417000        1.0080           0
     29119 WT2      956      TIP3     OH2      OT      -0.834000       15.9994           0
     29120 WT2      956      TIP3     H1       HT       0.417000        1.0080           0
     29121 WT2      956      TIP3     H2       HT       0.417000        1.0080           0
     29122 WT2      964      TIP3     OH2      OT      -0.834000       15.9994           0
     29123 WT2      964      TIP3     H1       HT       0.417000        1.0080           0
     29124 WT2      964      TIP3     H2       HT       0.417000        1.0080           0
     29125 WT2      968      TIP3     OH2      OT      -0.834000       15.9994           0
     29126 WT2      968      TIP3     H1       HT       0.417000        1.0080           0
     29127 WT2      968      TIP3     H2       HT       0.417000        1.0080           0
     29128 WT2      969      TIP3     OH2      OT      -0.834000       15.9994           0
     29129 WT2      969      TIP3     H1       HT       0.417000        1.0080           0
     29130 WT2      969      TIP3     H2       HT       0.417000        1.0080           0
     29131 WT2      970      TIP3     OH2      OT      -0.834000       15.9994           0
     29132 WT2      970      TIP3     H1       HT       0.417000        1.0080           0
     29133 WT2      970      TIP3     H2       HT       0.417000        1.0080           0
     29134 WT2      972      TIP3     OH2      OT      -0.834000       15.9994           0
     29135 WT2      972      TIP3     H1       HT       0.417000        1.0080           0
     29136 WT2      972      TIP3     H2       HT       0.417000        1.0080           0
     29137 WT2      973      TIP3     OH2      OT      -0.834000       15.9994           0
     29138 WT2      973      TIP3     H1       HT       0.417000        1.0080           0
     29139 WT2      973      TIP3     H2       HT       0.417000        1.0080           0
     29140 WT2      974      TIP3     OH2      OT      -0.834000       15.9994           0
     29141 WT2      974      TIP3     H1       HT       0.417000        1.0080           0
     29142 WT2      974      TIP3     H2       HT       0.417000        1.0080           0
     29143 WT2      975      TIP3     OH2      OT      -0.834000       15.9994           0
     29144 WT2      975      TIP3     H1       HT       0.417000        1.0080           0
     29145 WT2      975      TIP3     H2       HT       0.417000        1.0080           0
     29146 WT2      976      TIP3     OH2      OT      -0.834000       15.9994           0
     29147 WT2      976      TIP3     H1       HT       0.417000        1.0080           0
     29148 WT2      976      TIP3     H2       HT       0.417000        1.0080           0
     29149 WT2      985      TIP3     OH2      OT      -0.834000       15.9994           0
     29150 WT2      985      TIP3     H1       HT       0.417000        1.0080           0
     29151 WT2      985      TIP3     H2       HT       0.417000        1.0080           0
     29152 WT2      987      TIP3     OH2      OT      -0.834000       15.9994           0
     29153 WT2      987      TIP3     H1       HT       0.417000        1.0080           0
     29154 WT2      987      TIP3     H2       HT       0.417000        1.0080           0
     29155 WT2      988      TIP3     OH2      OT      -0.834000       15.9994           0
     29156 WT2      988      TIP3     H1       HT       0.417000        1.0080           0
     29157 WT2      988      TIP3     H2       HT       0.417000        1.0080           0
     29158 WT2      989      TIP3     OH2      OT      -0.834000       15.9994           0
     29159 WT2      989      TIP3     H1       HT       0.417000        1.0080           0
     29160 WT2      989      TIP3     H2       HT       0.417000        1.0080           0
     29161 WT2      990      TIP3     OH2      OT      -0.834000       15.9994           0
     29162 WT2      990      TIP3     H1       HT       0.417000        1.0080           0
     29163 WT2      990      TIP3     H2       HT       0.417000        1.0080           0
     29164 WT2      991      TIP3     OH2      OT      -0.834000       15.9994           0
     29165 WT2      991      TIP3     H1       HT       0.417000        1.0080           0
     29166 WT2      991      TIP3     H2       HT       0.417000        1.0080           0
     29167 WT2      992      TIP3     OH2      OT      -0.834000       15.9994           0
     29168 WT2      992      TIP3     H1       HT       0.417000        1.0080           0
     29169 WT2      992      TIP3     H2       HT       0.417000        1.0080           0
     29170 WT2      995      TIP3     OH2      OT      -0.834000       15.9994           0
     29171 WT2      995      TIP3     H1       HT       0.417000        1.0080           0
     29172 WT2      995      TIP3     H2       HT       0.417000        1.0080           0
     29173 WT2      996      TIP3     OH2      OT      -0.834000       15.9994           0
     29174 WT2      996      TIP3     H1       HT       0.417000        1.0080           0
     29175 WT2      996      TIP3     H2       HT       0.417000        1.0080           0
     29176 WT2      1007     TIP3     OH2      OT      -0.834000       15.9994           0
     29177 WT2      1007     TIP3     H1       HT       0.417000        1.0080           0
     29178 WT2      1007     TIP3     H2       HT       0.417000        1.0080           0
     29179 WT2      1010     TIP3     OH2      OT      -0.834000       15.9994           0
     29180 WT2      1010     TIP3     H1       HT       0.417000        1.0080           0
     29181 WT2      1010     TIP3     H2       HT       0.417000        1.0080           0
     29182 WT2      1011     TIP3     OH2      OT      -0.834000       15.9994           0
     29183 WT2      1011     TIP3     H1       HT       0.417000        1.0080           0
     29184 WT2      1011     TIP3     H2       HT       0.417000        1.0080           0
     29185 WT2      1013     TIP3     OH2      OT      -0.834000       15.9994           0
     29186 WT2      1013     TIP3     H1       HT       0.417000        1.0080           0
     29187 WT2      1013     TIP3     H2       HT       0.417000        1.0080           0
     29188 WT2      1014     TIP3     OH2      OT      -0.834000       15.9994           0
     29189 WT2      1014     TIP3     H1       HT       0.417000        1.0080           0
     29190 WT2      1014     TIP3     H2       HT       0.417000        1.0080           0
     29191 WT2      1015     TIP3     OH2      OT      -0.834000       15.9994           0
     29192 WT2      1015     TIP3     H1       HT       0.417000        1.0080           0
     29193 WT2      1015     TIP3     H2       HT       0.417000        1.0080           0
     29194 WT2      1017     TIP3     OH2      OT      -0.834000       15.9994           0
     29195 WT2      1017     TIP3     H1       HT       0.417000        1.0080           0
     29196 WT2      1017     TIP3     H2       HT       0.417000        1.0080           0
     29197 WT2      1018     TIP3     OH2      OT      -0.834000       15.9994           0
     29198 WT2      1018     TIP3     H1       HT       0.417000        1.0080           0
     29199 WT2      1018     TIP3     H2       HT       0.417000        1.0080           0
     29200 WT2      1027     TIP3     OH2      OT      -0.834000       15.9994           0
     29201 WT2      1027     TIP3     H1       HT       0.417000        1.0080           0
     29202 WT2      1027     TIP3     H2       HT       0.417000        1.0080           0
     29203 WT2      1032     TIP3     OH2      OT      -0.834000       15.9994           0
     29204 WT2      1032     TIP3     H1       HT       0.417000        1.0080           0
     29205 WT2      1032     TIP3     H2       HT       0.417000        1.0080           0
     29206 WT2      1033     TIP3     OH2      OT      -0.834000       15.9994           0
     29207 WT2      1033     TIP3     H1       HT       0.417000        1.0080           0
     29208 WT2      1033     TIP3     H2       HT       0.417000        1.0080           0
     29209 WT2      1040     TIP3     OH2      OT      -0.834000       15.9994           0
     29210 WT2      1040     TIP3     H1       HT       0.417000        1.0080           0
     29211 WT2      1040     TIP3     H2       HT       0.417000        1.0080           0
     29212 WT2      1051     TIP3     OH2      OT      -0.834000       15.9994           0
     29213 WT2      1051     TIP3     H1       HT       0.417000        1.0080           0
     29214 WT2      1051     TIP3     H2       HT       0.417000        1.0080           0
     29215 WT2      1053     TIP3     OH2      OT      -0.834000       15.9994           0
     29216 WT2      1053     TIP3     H1       HT       0.417000        1.0080           0
     29217 WT2      1053     TIP3     H2       HT       0.417000        1.0080           0
     29218 WT2      1054     TIP3     OH2      OT      -0.834000       15.9994           0
     29219 WT2      1054     TIP3     H1       HT       0.417000        1.0080           0
     29220 WT2      1054     TIP3     H2       HT       0.417000        1.0080           0
     29221 WT2      1055     TIP3     OH2      OT      -0.834000       15.9994           0
     29222 WT2      1055     TIP3     H1       HT       0.417000        1.0080           0
     29223 WT2      1055     TIP3     H2       HT       0.417000        1.0080           0
     29224 WT2      1056     TIP3     OH2      OT      -0.834000       15.9994           0
     29225 WT2      1056     TIP3     H1       HT       0.417000        1.0080           0
     29226 WT2      1056     TIP3     H2       HT       0.417000        1.0080           0
     29227 WT2      1057     TIP3     OH2      OT      -0.834000       15.9994           0
     29228 WT2      1057     TIP3     H1       HT       0.417000        1.0080           0
     29229 WT2      1057     TIP3     H2       HT       0.417000        1.0080           0
     29230 WT2      1058     TIP3     OH2      OT      -0.834000       15.9994           0
     29231 WT2      1058     TIP3     H1       HT       0.417000        1.0080           0
     29232 WT2      1058     TIP3     H2       HT       0.417000        1.0080           0
     29233 WT2      1059     TIP3     OH2      OT      -0.834000       15.9994           0
     29234 WT2      1059     TIP3     H1       HT       0.417000        1.0080           0
     29235 WT2      1059     TIP3     H2       HT       0.417000        1.0080           0
     29236 WT2      1072     TIP3     OH2      OT      -0.834000       15.9994           0
     29237 WT2      1072     TIP3     H1       HT       0.417000        1.0080           0
     29238 WT2      1072     TIP3     H2       HT       0.417000        1.0080           0
     29239 WT2      1075     TIP3     OH2      OT      -0.834000       15.9994           0
     29240 WT2      1075     TIP3     H1       HT       0.417000        1.0080           0
     29241 WT2      1075     TIP3     H2       HT       0.417000        1.0080           0
     29242 WT2      1076     TIP3     OH2      OT      -0.834000       15.9994           0
     29243 WT2      1076     TIP3     H1       HT       0.417000        1.0080           0
     29244 WT2      1076     TIP3     H2       HT       0.417000        1.0080           0
     29245 WT2      1077     TIP3     OH2      OT      -0.834000       15.9994           0
     29246 WT2      1077     TIP3     H1       HT       0.417000        1.0080           0
     29247 WT2      1077     TIP3     H2       HT       0.417000        1.0080           0
     29248 WT2      1078     TIP3     OH2      OT      -0.834000       15.9994           0
     29249 WT2      1078     TIP3     H1       HT       0.417000        1.0080           0
     29250 WT2      1078     TIP3     H2       HT       0.417000        1.0080           0
     29251 WT2      1080     TIP3     OH2      OT      -0.834000       15.9994           0
     29252 WT2      1080     TIP3     H1       HT       0.417000        1.0080           0
     29253 WT2      1080     TIP3     H2       HT       0.417000        1.0080           0
     29254 WT2      1092     TIP3     OH2      OT      -0.834000       15.9994           0
     29255 WT2      1092     TIP3     H1       HT       0.417000        1.0080           0
     29256 WT2      1092     TIP3     H2       HT       0.417000        1.0080           0
     29257 WT2      1094     TIP3     OH2      OT      -0.834000       15.9994           0
     29258 WT2      1094     TIP3     H1       HT       0.417000        1.0080           0
     29259 WT2      1094     TIP3     H2       HT       0.417000        1.0080           0
     29260 WT2      1096     TIP3     OH2      OT      -0.834000       15.9994           0
     29261 WT2      1096     TIP3     H1       HT       0.417000        1.0080           0
     29262 WT2      1096     TIP3     H2       HT       0.417000        1.0080           0
     29263 WT2      1098     TIP3     OH2      OT      -0.834000       15.9994           0
     29264 WT2      1098     TIP3     H1       HT       0.417000        1.0080           0
     29265 WT2      1098     TIP3     H2       HT       0.417000        1.0080           0
     29266 WT2      1101     TIP3     OH2      OT      -0.834000       15.9994           0
     29267 WT2      1101     TIP3     H1       HT       0.417000        1.0080           0
     29268 WT2      1101     TIP3     H2       HT       0.417000        1.0080           0
     29269 WT2      1112     TIP3     OH2      OT      -0.834000       15.9994           0
     29270 WT2      1112     TIP3     H1       HT       0.417000        1.0080           0
     29271 WT2      1112     TIP3     H2       HT       0.417000        1.0080           0
     29272 WT2      1113     TIP3     OH2      OT      -0.834000       15.9994           0
     29273 WT2      1113     TIP3     H1       HT       0.417000        1.0080           0
     29274 WT2      1113     TIP3     H2       HT       0.417000        1.0080           0
     29275 WT2      1115     TIP3     OH2      OT      -0.834000       15.9994           0
     29276 WT2      1115     TIP3     H1       HT       0.417000        1.0080           0
     29277 WT2      1115     TIP3     H2       HT       0.417000        1.0080           0
     29278 WT2      1117     TIP3     OH2      OT      -0.834000       15.9994           0
     29279 WT2      1117     TIP3     H1       HT       0.417000        1.0080           0
     29280 WT2      1117     TIP3     H2       HT       0.417000        1.0080           0
     29281 WT2      1119     TIP3     OH2      OT      -0.834000       15.9994           0
     29282 WT2      1119     TIP3     H1       HT       0.417000        1.0080           0
     29283 WT2      1119     TIP3     H2       HT       0.417000        1.0080           0
     29284 WT2      1122     TIP3     OH2      OT      -0.834000       15.9994           0
     29285 WT2      1122     TIP3     H1       HT       0.417000        1.0080           0
     29286 WT2      1122     TIP3     H2       HT       0.417000        1.0080           0
     29287 WT2      1134     TIP3     OH2      OT      -0.834000       15.9994           0
     29288 WT2      1134     TIP3     H1       HT       0.417000        1.0080           0
     29289 WT2      1134     TIP3     H2       HT       0.417000        1.0080           0
     29290 WT2      1135     TIP3     OH2      OT      -0.834000       15.9994           0
     29291 WT2      1135     TIP3     H1       HT       0.417000        1.0080           0
     29292 WT2      1135     TIP3     H2       HT       0.417000        1.0080           0
     29293 WT2      1137     TIP3     OH2      OT      -0.834000       15.9994           0
     29294 WT2      1137     TIP3     H1       HT       0.417000        1.0080           0
     29295 WT2      1137     TIP3     H2       HT       0.417000        1.0080           0
     29296 WT2      1139     TIP3     OH2      OT      -0.834000       15.9994           0
     29297 WT2      1139     TIP3     H1       HT       0.417000        1.0080           0
     29298 WT2      1139     TIP3     H2       HT       0.417000        1.0080           0
     29299 WT2      1140     TIP3     OH2      OT      -0.834000       15.9994           0
     29300 WT2      1140     TIP3     H1       HT       0.417000        1.0080           0
     29301 WT2      1140     TIP3     H2       HT       0.417000        1.0080           0
     29302 WT2      1146     TIP3     OH2      OT      -0.834000       15.9994           0
     29303 WT2      1146     TIP3     H1       HT       0.417000        1.0080           0
     29304 WT2      1146     TIP3     H2       HT       0.417000        1.0080           0
     29305 WT2      1155     TIP3     OH2      OT      -0.834000       15.9994           0
     29306 WT2      1155     TIP3     H1       HT       0.417000        1.0080           0
     29307 WT2      1155     TIP3     H2       HT       0.417000        1.0080           0
     29308 WT2      1157     TIP3     OH2      OT      -0.834000       15.9994           0
     29309 WT2      1157     TIP3     H1       HT       0.417000        1.0080           0
     29310 WT2      1157     TIP3     H2       HT       0.417000        1.0080           0
     29311 WT2      1158     TIP3     OH2      OT      -0.834000       15.9994           0
     29312 WT2      1158     TIP3     H1       HT       0.417000        1.0080           0
     29313 WT2      1158     TIP3     H2       HT       0.417000        1.0080           0
     29314 WT2      1159     TIP3     OH2      OT      -0.834000       15.9994           0
     29315 WT2      1159     TIP3     H1       HT       0.417000        1.0080           0
     29316 WT2      1159     TIP3     H2       HT       0.417000        1.0080           0
     29317 WT2      1160     TIP3     OH2      OT      -0.834000       15.9994           0
     29318 WT2      1160     TIP3     H1       HT       0.417000        1.0080           0
     29319 WT2      1160     TIP3     H2       HT       0.417000        1.0080           0
     29320 WT2      1162     TIP3     OH2      OT      -0.834000       15.9994           0
     29321 WT2      1162     TIP3     H1       HT       0.417000        1.0080           0
     29322 WT2      1162     TIP3     H2       HT       0.417000        1.0080           0
     29323 WT2      1163     TIP3     OH2      OT      -0.834000       15.9994           0
     29324 WT2      1163     TIP3     H1       HT       0.417000        1.0080           0
     29325 WT2      1163     TIP3     H2       HT       0.417000        1.0080           0
     29326 WT2      1177     TIP3     OH2      OT      -0.834000       15.9994           0
     29327 WT2      1177     TIP3     H1       HT       0.417000        1.0080           0
     29328 WT2      1177     TIP3     H2       HT       0.417000        1.0080           0
     29329 WT2      1178     TIP3     OH2      OT      -0.834000       15.9994           0
     29330 WT2      1178     TIP3     H1       HT       0.417000        1.0080           0
     29331 WT2      1178     TIP3     H2       HT       0.417000        1.0080           0
     29332 WT2      1179     TIP3     OH2      OT      -0.834000       15.9994           0
     29333 WT2      1179     TIP3     H1       HT       0.417000        1.0080           0
     29334 WT2      1179     TIP3     H2       HT       0.417000        1.0080           0
     29335 WT2      1180     TIP3     OH2      OT      -0.834000       15.9994           0
     29336 WT2      1180     TIP3     H1       HT       0.417000        1.0080           0
     29337 WT2      1180     TIP3     H2       HT       0.417000        1.0080           0
     29338 WT2      1181     TIP3     OH2      OT      -0.834000       15.9994           0
     29339 WT2      1181     TIP3     H1       HT       0.417000        1.0080           0
     29340 WT2      1181     TIP3     H2       HT       0.417000        1.0080           0
     29341 WT2      1183     TIP3     OH2      OT      -0.834000       15.9994           0
     29342 WT2      1183     TIP3     H1       HT       0.417000        1.0080           0
     29343 WT2      1183     TIP3     H2       HT       0.417000        1.0080           0
     29344 WT2      1185     TIP3     OH2      OT      -0.834000       15.9994           0
     29345 WT2      1185     TIP3     H1       HT       0.417000        1.0080           0
     29346 WT2      1185     TIP3     H2       HT       0.417000        1.0080           0
     29347 WT2      1197     TIP3     OH2      OT      -0.834000       15.9994           0
     29348 WT2      1197     TIP3     H1       HT       0.417000        1.0080           0
     29349 WT2      1197     TIP3     H2       HT       0.417000        1.0080           0
     29350 WT2      1200     TIP3     OH2      OT      -0.834000       15.9994           0
     29351 WT2      1200     TIP3     H1       HT       0.417000        1.0080           0
     29352 WT2      1200     TIP3     H2       HT       0.417000        1.0080           0
     29353 WT2      1201     TIP3     OH2      OT      -0.834000       15.9994           0
     29354 WT2      1201     TIP3     H1       HT       0.417000        1.0080           0
     29355 WT2      1201     TIP3     H2       HT       0.417000        1.0080           0
     29356 WT2      1202     TIP3     OH2      OT      -0.834000       15.9994           0
     29357 WT2      1202     TIP3     H1       HT       0.417000        1.0080           0
     29358 WT2      1202     TIP3     H2       HT       0.417000        1.0080           0
     29359 WT2      1203     TIP3     OH2      OT      -0.834000       15.9994           0
     29360 WT2      1203     TIP3     H1       HT       0.417000        1.0080           0
     29361 WT2      1203     TIP3     H2       HT       0.417000        1.0080           0
     29362 WT2      1205     TIP3     OH2      OT      -0.834000       15.9994           0
     29363 WT2      1205     TIP3     H1       HT       0.417000        1.0080           0
     29364 WT2      1205     TIP3     H2       HT       0.417000        1.0080           0
     29365 WT2      1206     TIP3     OH2      OT      -0.834000       15.9994           0
     29366 WT2      1206     TIP3     H1       HT       0.417000        1.0080           0
     29367 WT2      1206     TIP3     H2       HT       0.417000        1.0080           0
     29368 WT2      1208     TIP3     OH2      OT      -0.834000       15.9994           0
     29369 WT2      1208     TIP3     H1       HT       0.417000        1.0080           0
     29370 WT2      1208     TIP3     H2       HT       0.417000        1.0080           0
     29371 WT2      1219     TIP3     OH2      OT      -0.834000       15.9994           0
     29372 WT2      1219     TIP3     H1       HT       0.417000        1.0080           0
     29373 WT2      1219     TIP3     H2       HT       0.417000        1.0080           0
     29374 WT2      1220     TIP3     OH2      OT      -0.834000       15.9994           0
     29375 WT2      1220     TIP3     H1       HT       0.417000        1.0080           0
     29376 WT2      1220     TIP3     H2       HT       0.417000        1.0080           0
     29377 WT2      1222     TIP3     OH2      OT      -0.834000       15.9994           0
     29378 WT2      1222     TIP3     H1       HT       0.417000        1.0080           0
     29379 WT2      1222     TIP3     H2       HT       0.417000        1.0080           0
     29380 WT2      1223     TIP3     OH2      OT      -0.834000       15.9994           0
     29381 WT2      1223     TIP3     H1       HT       0.417000        1.0080           0
     29382 WT2      1223     TIP3     H2       HT       0.417000        1.0080           0
     29383 WT2      1224     TIP3     OH2      OT      -0.834000       15.9994           0
     29384 WT2      1224     TIP3     H1       HT       0.417000        1.0080           0
     29385 WT2      1224     TIP3     H2       HT       0.417000        1.0080           0
     29386 WT2      1225     TIP3     OH2      OT      -0.834000       15.9994           0
     29387 WT2      1225     TIP3     H1       HT       0.417000        1.0080           0
     29388 WT2      1225     TIP3     H2       HT       0.417000        1.0080           0
     29389 WT2      1226     TIP3     OH2      OT      -0.834000       15.9994           0
     29390 WT2      1226     TIP3     H1       HT       0.417000        1.0080           0
     29391 WT2      1226     TIP3     H2       HT       0.417000        1.0080           0
     29392 WT2      1227     TIP3     OH2      OT      -0.834000       15.9994           0
     29393 WT2      1227     TIP3     H1       HT       0.417000        1.0080           0
     29394 WT2      1227     TIP3     H2       HT       0.417000        1.0080           0
     29395 WT2      1240     TIP3     OH2      OT      -0.834000       15.9994           0
     29396 WT2      1240     TIP3     H1       HT       0.417000        1.0080           0
     29397 WT2      1240     TIP3     H2       HT       0.417000        1.0080           0
     29398 WT2      1241     TIP3     OH2      OT      -0.834000       15.9994           0
     29399 WT2      1241     TIP3     H1       HT       0.417000        1.0080           0
     29400 WT2      1241     TIP3     H2       HT       0.417000        1.0080           0
     29401 WT2      1242     TIP3     OH2      OT      -0.834000       15.9994           0
     29402 WT2      1242     TIP3     H1       HT       0.417000        1.0080           0
     29403 WT2      1242     TIP3     H2       HT       0.417000        1.0080           0
     29404 WT2      1243     TIP3     OH2      OT      -0.834000       15.9994           0
     29405 WT2      1243     TIP3     H1       HT       0.417000        1.0080           0
     29406 WT2      1243     TIP3     H2       HT       0.417000        1.0080           0
     29407 WT2      1244     TIP3     OH2      OT      -0.834000       15.9994           0
     29408 WT2      1244     TIP3     H1       HT       0.417000        1.0080           0
     29409 WT2      1244     TIP3     H2       HT       0.417000        1.0080           0
     29410 WT2      1247     TIP3     OH2      OT      -0.834000       15.9994           0
     29411 WT2      1247     TIP3     H1       HT       0.417000        1.0080           0
     29412 WT2      1247     TIP3     H2       HT       0.417000        1.0080           0
     29413 WT2      1248     TIP3     OH2      OT      -0.834000       15.9994           0
     29414 WT2      1248     TIP3     H1       HT       0.417000        1.0080           0
     29415 WT2      1248     TIP3     H2       HT       0.417000        1.0080           0
     29416 WT2      1258     TIP3     OH2      OT      -0.834000       15.9994           0
     29417 WT2      1258     TIP3     H1       HT       0.417000        1.0080           0
     29418 WT2      1258     TIP3     H2       HT       0.417000        1.0080           0
     29419 WT2      1263     TIP3     OH2      OT      -0.834000       15.9994           0
     29420 WT2      1263     TIP3     H1       HT       0.417000        1.0080           0
     29421 WT2      1263     TIP3     H2       HT       0.417000        1.0080           0
     29422 WT2      1265     TIP3     OH2      OT      -0.834000       15.9994           0
     29423 WT2      1265     TIP3     H1       HT       0.417000        1.0080           0
     29424 WT2      1265     TIP3     H2       HT       0.417000        1.0080           0
     29425 WT2      1266     TIP3     OH2      OT      -0.834000       15.9994           0
     29426 WT2      1266     TIP3     H1       HT       0.417000        1.0080           0
     29427 WT2      1266     TIP3     H2       HT       0.417000        1.0080           0
     29428 WT2      1267     TIP3     OH2      OT      -0.834000       15.9994           0
     29429 WT2      1267     TIP3     H1       HT       0.417000        1.0080           0
     29430 WT2      1267     TIP3     H2       HT       0.417000        1.0080           0
     29431 WT2      1268     TIP3     OH2      OT      -0.834000       15.9994           0
     29432 WT2      1268     TIP3     H1       HT       0.417000        1.0080           0
     29433 WT2      1268     TIP3     H2       HT       0.417000        1.0080           0
     29434 WT2      1269     TIP3     OH2      OT      -0.834000       15.9994           0
     29435 WT2      1269     TIP3     H1       HT       0.417000        1.0080           0
     29436 WT2      1269     TIP3     H2       HT       0.417000        1.0080           0
     29437 WT2      1271     TIP3     OH2      OT      -0.834000       15.9994           0
     29438 WT2      1271     TIP3     H1       HT       0.417000        1.0080           0
     29439 WT2      1271     TIP3     H2       HT       0.417000        1.0080           0
     29440 WT2      1281     TIP3     OH2      OT      -0.834000       15.9994           0
     29441 WT2      1281     TIP3     H1       HT       0.417000        1.0080           0
     29442 WT2      1281     TIP3     H2       HT       0.417000        1.0080           0
     29443 WT2      1283     TIP3     OH2      OT      -0.834000       15.9994           0
     29444 WT2      1283     TIP3     H1       HT       0.417000        1.0080           0
     29445 WT2      1283     TIP3     H2       HT       0.417000        1.0080           0
     29446 WT2      1284     TIP3     OH2      OT      -0.834000       15.9994           0
     29447 WT2      1284     TIP3     H1       HT       0.417000        1.0080           0
     29448 WT2      1284     TIP3     H2       HT       0.417000        1.0080           0
     29449 WT2      1285     TIP3     OH2      OT      -0.834000       15.9994           0
     29450 WT2      1285     TIP3     H1       HT       0.417000        1.0080           0
     29451 WT2      1285     TIP3     H2       HT       0.417000        1.0080           0
     29452 WT2      1286     TIP3     OH2      OT      -0.834000       15.9994           0
     29453 WT2      1286     TIP3     H1       HT       0.417000        1.0080           0
     29454 WT2      1286     TIP3     H2       HT       0.417000        1.0080           0
     29455 WT2      1290     TIP3     OH2      OT      -0.834000       15.9994           0
     29456 WT2      1290     TIP3     H1       HT       0.417000        1.0080           0
     29457 WT2      1290     TIP3     H2       HT       0.417000        1.0080           0
     29458 WT2      1301     TIP3     OH2      OT      -0.834000       15.9994           0
     29459 WT2      1301     TIP3     H1       HT       0.417000        1.0080           0
     29460 WT2      1301     TIP3     H2       HT       0.417000        1.0080           0
     29461 WT2      1303     TIP3     OH2      OT      -0.834000       15.9994           0
     29462 WT2      1303     TIP3     H1       HT       0.417000        1.0080           0
     29463 WT2      1303     TIP3     H2       HT       0.417000        1.0080           0
     29464 WT2      1304     TIP3     OH2      OT      -0.834000       15.9994           0
     29465 WT2      1304     TIP3     H1       HT       0.417000        1.0080           0
     29466 WT2      1304     TIP3     H2       HT       0.417000        1.0080           0
     29467 WT2      1305     TIP3     OH2      OT      -0.834000       15.9994           0
     29468 WT2      1305     TIP3     H1       HT       0.417000        1.0080           0
     29469 WT2      1305     TIP3     H2       HT       0.417000        1.0080           0
     29470 WT2      1306     TIP3     OH2      OT      -0.834000       15.9994           0
     29471 WT2      1306     TIP3     H1       HT       0.417000        1.0080           0
     29472 WT2      1306     TIP3     H2       HT       0.417000        1.0080           0
     29473 WT2      1307     TIP3     OH2      OT      -0.834000       15.9994           0
     29474 WT2      1307     TIP3     H1       HT       0.417000        1.0080           0
     29475 WT2      1307     TIP3     H2       HT       0.417000        1.0080           0
     29476 WT2      1308     TIP3     OH2      OT      -0.834000       15.9994           0
     29477 WT2      1308     TIP3     H1       HT       0.417000        1.0080           0
     29478 WT2      1308     TIP3     H2       HT       0.417000        1.0080           0
     29479 WT2      1322     TIP3     OH2      OT      -0.834000       15.9994           0
     29480 WT2      1322     TIP3     H1       HT       0.417000        1.0080           0
     29481 WT2      1322     TIP3     H2       HT       0.417000        1.0080           0
     29482 WT2      1324     TIP3     OH2      OT      -0.834000       15.9994           0
     29483 WT2      1324     TIP3     H1       HT       0.417000        1.0080           0
     29484 WT2      1324     TIP3     H2       HT       0.417000        1.0080           0
     29485 WT2      1326     TIP3     OH2      OT      -0.834000       15.9994           0
     29486 WT2      1326     TIP3     H1       HT       0.417000        1.0080           0
     29487 WT2      1326     TIP3     H2       HT       0.417000        1.0080           0
     29488 WT2      1327     TIP3     OH2      OT      -0.834000       15.9994           0
     29489 WT2      1327     TIP3     H1       HT       0.417000        1.0080           0
     29490 WT2      1327     TIP3     H2       HT       0.417000        1.0080           0
     29491 WT2      1328     TIP3     OH2      OT      -0.834000       15.9994           0
     29492 WT2      1328     TIP3     H1       HT       0.417000        1.0080           0
     29493 WT2      1328     TIP3     H2       HT       0.417000        1.0080           0
     29494 WT2      1329     TIP3     OH2      OT      -0.834000       15.9994           0
     29495 WT2      1329     TIP3     H1       HT       0.417000        1.0080           0
     29496 WT2      1329     TIP3     H2       HT       0.417000        1.0080           0
     29497 WT2      1330     TIP3     OH2      OT      -0.834000       15.9994           0
     29498 WT2      1330     TIP3     H1       HT       0.417000        1.0080           0
     29499 WT2      1330     TIP3     H2       HT       0.417000        1.0080           0
     29500 WT2      1333     TIP3     OH2      OT      -0.834000       15.9994           0
     29501 WT2      1333     TIP3     H1       HT       0.417000        1.0080           0
     29502 WT2      1333     TIP3     H2       HT       0.417000        1.0080           0
     29503 WT2      1344     TIP3     OH2      OT      -0.834000       15.9994           0
     29504 WT2      1344     TIP3     H1       HT       0.417000        1.0080           0
     29505 WT2      1344     TIP3     H2       HT       0.417000        1.0080           0
     29506 WT2      1345     TIP3     OH2      OT      -0.834000       15.9994           0
     29507 WT2      1345     TIP3     H1       HT       0.417000        1.0080           0
     29508 WT2      1345     TIP3     H2       HT       0.417000        1.0080           0
     29509 WT2      1346     TIP3     OH2      OT      -0.834000       15.9994           0
     29510 WT2      1346     TIP3     H1       HT       0.417000        1.0080           0
     29511 WT2      1346     TIP3     H2       HT       0.417000        1.0080           0
     29512 WT2      1347     TIP3     OH2      OT      -0.834000       15.9994           0
     29513 WT2      1347     TIP3     H1       HT       0.417000        1.0080           0
     29514 WT2      1347     TIP3     H2       HT       0.417000        1.0080           0
     29515 WT2      1349     TIP3     OH2      OT      -0.834000       15.9994           0
     29516 WT2      1349     TIP3     H1       HT       0.417000        1.0080           0
     29517 WT2      1349     TIP3     H2       HT       0.417000        1.0080           0
     29518 WT2      1350     TIP3     OH2      OT      -0.834000       15.9994           0
     29519 WT2      1350     TIP3     H1       HT       0.417000        1.0080           0
     29520 WT2      1350     TIP3     H2       HT       0.417000        1.0080           0
     29521 WT2      1351     TIP3     OH2      OT      -0.834000       15.9994           0
     29522 WT2      1351     TIP3     H1       HT       0.417000        1.0080           0
     29523 WT2      1351     TIP3     H2       HT       0.417000        1.0080           0
     29524 WT2      1352     TIP3     OH2      OT      -0.834000       15.9994           0
     29525 WT2      1352     TIP3     H1       HT       0.417000        1.0080           0
     29526 WT2      1352     TIP3     H2       HT       0.417000        1.0080           0
     29527 WT2      1353     TIP3     OH2      OT      -0.834000       15.9994           0
     29528 WT2      1353     TIP3     H1       HT       0.417000        1.0080           0
     29529 WT2      1353     TIP3     H2       HT       0.417000        1.0080           0
     29530 WT2      1354     TIP3     OH2      OT      -0.834000       15.9994           0
     29531 WT2      1354     TIP3     H1       HT       0.417000        1.0080           0
     29532 WT2      1354     TIP3     H2       HT       0.417000        1.0080           0
     29533 WT2      1355     TIP3     OH2      OT      -0.834000       15.9994           0
     29534 WT2      1355     TIP3     H1       HT       0.417000        1.0080           0
     29535 WT2      1355     TIP3     H2       HT       0.417000        1.0080           0
     29536 WT2      1367     TIP3     OH2      OT      -0.834000       15.9994           0
     29537 WT2      1367     TIP3     H1       HT       0.417000        1.0080           0
     29538 WT2      1367     TIP3     H2       HT       0.417000        1.0080           0
     29539 WT2      1368     TIP3     OH2      OT      -0.834000       15.9994           0
     29540 WT2      1368     TIP3     H1       HT       0.417000        1.0080           0
     29541 WT2      1368     TIP3     H2       HT       0.417000        1.0080           0
     29542 WT2      1370     TIP3     OH2      OT      -0.834000       15.9994           0
     29543 WT2      1370     TIP3     H1       HT       0.417000        1.0080           0
     29544 WT2      1370     TIP3     H2       HT       0.417000        1.0080           0
     29545 WT2      1371     TIP3     OH2      OT      -0.834000       15.9994           0
     29546 WT2      1371     TIP3     H1       HT       0.417000        1.0080           0
     29547 WT2      1371     TIP3     H2       HT       0.417000        1.0080           0
     29548 WT2      1373     TIP3     OH2      OT      -0.834000       15.9994           0
     29549 WT2      1373     TIP3     H1       HT       0.417000        1.0080           0
     29550 WT2      1373     TIP3     H2       HT       0.417000        1.0080           0
     29551 WT2      1374     TIP3     OH2      OT      -0.834000       15.9994           0
     29552 WT2      1374     TIP3     H1       HT       0.417000        1.0080           0
     29553 WT2      1374     TIP3     H2       HT       0.417000        1.0080           0
     29554 WT2      1375     TIP3     OH2      OT      -0.834000       15.9994           0
     29555 WT2      1375     TIP3     H1       HT       0.417000        1.0080           0
     29556 WT2      1375     TIP3     H2       HT       0.417000        1.0080           0
     29557 WT2      1376     TIP3     OH2      OT      -0.834000       15.9994           0
     29558 WT2      1376     TIP3     H1       HT       0.417000        1.0080           0
     29559 WT2      1376     TIP3     H2       HT       0.417000        1.0080           0
     29560 WT2      1386     TIP3     OH2      OT      -0.834000       15.9994           0
     29561 WT2      1386     TIP3     H1       HT       0.417000        1.0080           0
     29562 WT2      1386     TIP3     H2       HT       0.417000        1.0080           0
     29563 WT2      1387     TIP3     OH2      OT      -0.834000       15.9994           0
     29564 WT2      1387     TIP3     H1       HT       0.417000        1.0080           0
     29565 WT2      1387     TIP3     H2       HT       0.417000        1.0080           0
     29566 WT2      1388     TIP3     OH2      OT      -0.834000       15.9994           0
     29567 WT2      1388     TIP3     H1       HT       0.417000        1.0080           0
     29568 WT2      1388     TIP3     H2       HT       0.417000        1.0080           0
     29569 WT2      1389     TIP3     OH2      OT      -0.834000       15.9994           0
     29570 WT2      1389     TIP3     H1       HT       0.417000        1.0080           0
     29571 WT2      1389     TIP3     H2       HT       0.417000        1.0080           0
     29572 WT2      1392     TIP3     OH2      OT      -0.834000       15.9994           0
     29573 WT2      1392     TIP3     H1       HT       0.417000        1.0080           0
     29574 WT2      1392     TIP3     H2       HT       0.417000        1.0080           0
     29575 WT2      1393     TIP3     OH2      OT      -0.834000       15.9994           0
     29576 WT2      1393     TIP3     H1       HT       0.417000        1.0080           0
     29577 WT2      1393     TIP3     H2       HT       0.417000        1.0080           0
     29578 WT2      1407     TIP3     OH2      OT      -0.834000       15.9994           0
     29579 WT2      1407     TIP3     H1       HT       0.417000        1.0080           0
     29580 WT2      1407     TIP3     H2       HT       0.417000        1.0080           0
     29581 WT2      1408     TIP3     OH2      OT      -0.834000       15.9994           0
     29582 WT2      1408     TIP3     H1       HT       0.417000        1.0080           0
     29583 WT2      1408     TIP3     H2       HT       0.417000        1.0080           0
     29584 WT2      1411     TIP3     OH2      OT      -0.834000       15.9994           0
     29585 WT2      1411     TIP3     H1       HT       0.417000        1.0080           0
     29586 WT2      1411     TIP3     H2       HT       0.417000        1.0080           0
     29587 WT2      1412     TIP3     OH2      OT      -0.834000       15.9994           0
     29588 WT2      1412     TIP3     H1       HT       0.417000        1.0080           0
     29589 WT2      1412     TIP3     H2       HT       0.417000        1.0080           0
     29590 WT2      1413     TIP3     OH2      OT      -0.834000       15.9994           0
     29591 WT2      1413     TIP3     H1       HT       0.417000        1.0080           0
     29592 WT2      1413     TIP3     H2       HT       0.417000        1.0080           0
     29593 WT2      1414     TIP3     OH2      OT      -0.834000       15.9994           0
     29594 WT2      1414     TIP3     H1       HT       0.417000        1.0080           0
     29595 WT2      1414     TIP3     H2       HT       0.417000        1.0080           0
     29596 WT2      1415     TIP3     OH2      OT      -0.834000       15.9994           0
     29597 WT2      1415     TIP3     H1       HT       0.417000        1.0080           0
     29598 WT2      1415     TIP3     H2       HT       0.417000        1.0080           0
     29599 WT2      1418     TIP3     OH2      OT      -0.834000       15.9994           0
     29600 WT2      1418     TIP3     H1       HT       0.417000        1.0080           0
     29601 WT2      1418     TIP3     H2       HT       0.417000        1.0080           0
     29602 WT2      1425     TIP3     OH2      OT      -0.834000       15.9994           0
     29603 WT2      1425     TIP3     H1       HT       0.417000        1.0080           0
     29604 WT2      1425     TIP3     H2       HT       0.417000        1.0080           0
     29605 WT2      1427     TIP3     OH2      OT      -0.834000       15.9994           0
     29606 WT2      1427     TIP3     H1       HT       0.417000        1.0080           0
     29607 WT2      1427     TIP3     H2       HT       0.417000        1.0080           0
     29608 WT2      1428     TIP3     OH2      OT      -0.834000       15.9994           0
     29609 WT2      1428     TIP3     H1       HT       0.417000        1.0080           0
     29610 WT2      1428     TIP3     H2       HT       0.417000        1.0080           0
     29611 WT2      1429     TIP3     OH2      OT      -0.834000       15.9994           0
     29612 WT2      1429     TIP3     H1       HT       0.417000        1.0080           0
     29613 WT2      1429     TIP3     H2       HT       0.417000        1.0080           0
     29614 WT2      1430     TIP3     OH2      OT      -0.834000       15.9994           0
     29615 WT2      1430     TIP3     H1       HT       0.417000        1.0080           0
     29616 WT2      1430     TIP3     H2       HT       0.417000        1.0080           0
     29617 WT2      1431     TIP3     OH2      OT      -0.834000       15.9994           0
     29618 WT2      1431     TIP3     H1       HT       0.417000        1.0080           0
     29619 WT2      1431     TIP3     H2       HT       0.417000        1.0080           0
     29620 WT2      1432     TIP3     OH2      OT      -0.834000       15.9994           0
     29621 WT2      1432     TIP3     H1       HT       0.417000        1.0080           0
     29622 WT2      1432     TIP3     H2       HT       0.417000        1.0080           0
     29623 WT2      1433     TIP3     OH2      OT      -0.834000       15.9994           0
     29624 WT2      1433     TIP3     H1       HT       0.417000        1.0080           0
     29625 WT2      1433     TIP3     H2       HT       0.417000        1.0080           0
     29626 WT2      1435     TIP3     OH2      OT      -0.834000       15.9994           0
     29627 WT2      1435     TIP3     H1       HT       0.417000        1.0080           0
     29628 WT2      1435     TIP3     H2       HT       0.417000        1.0080           0
     29629 WT2      1440     TIP3     OH2      OT      -0.834000       15.9994           0
     29630 WT2      1440     TIP3     H1       HT       0.417000        1.0080           0
     29631 WT2      1440     TIP3     H2       HT       0.417000        1.0080           0
     29632 WT2      1450     TIP3     OH2      OT      -0.834000       15.9994           0
     29633 WT2      1450     TIP3     H1       HT       0.417000        1.0080           0
     29634 WT2      1450     TIP3     H2       HT       0.417000        1.0080           0
     29635 WT2      1451     TIP3     OH2      OT      -0.834000       15.9994           0
     29636 WT2      1451     TIP3     H1       HT       0.417000        1.0080           0
     29637 WT2      1451     TIP3     H2       HT       0.417000        1.0080           0
     29638 WT2      1452     TIP3     OH2      OT      -0.834000       15.9994           0
     29639 WT2      1452     TIP3     H1       HT       0.417000        1.0080           0
     29640 WT2      1452     TIP3     H2       HT       0.417000        1.0080           0
     29641 WT2      1453     TIP3     OH2      OT      -0.834000       15.9994           0
     29642 WT2      1453     TIP3     H1       HT       0.417000        1.0080           0
     29643 WT2      1453     TIP3     H2       HT       0.417000        1.0080           0
     29644 WT2      1454     TIP3     OH2      OT      -0.834000       15.9994           0
     29645 WT2      1454     TIP3     H1       HT       0.417000        1.0080           0
     29646 WT2      1454     TIP3     H2       HT       0.417000        1.0080           0
     29647 WT2      1455     TIP3     OH2      OT      -0.834000       15.9994           0
     29648 WT2      1455     TIP3     H1       HT       0.417000        1.0080           0
     29649 WT2      1455     TIP3     H2       HT       0.417000        1.0080           0
     29650 WT2      1457     TIP3     OH2      OT      -0.834000       15.9994           0
     29651 WT2      1457     TIP3     H1       HT       0.417000        1.0080           0
     29652 WT2      1457     TIP3     H2       HT       0.417000        1.0080           0
     29653 WT2      1458     TIP3     OH2      OT      -0.834000       15.9994           0
     29654 WT2      1458     TIP3     H1       HT       0.417000        1.0080           0
     29655 WT2      1458     TIP3     H2       HT       0.417000        1.0080           0
     29656 WT2      1459     TIP3     OH2      OT      -0.834000       15.9994           0
     29657 WT2      1459     TIP3     H1       HT       0.417000        1.0080           0
     29658 WT2      1459     TIP3     H2       HT       0.417000        1.0080           0
     29659 WT2      1466     TIP3     OH2      OT      -0.834000       15.9994           0
     29660 WT2      1466     TIP3     H1       HT       0.417000        1.0080           0
     29661 WT2      1466     TIP3     H2       HT       0.417000        1.0080           0
     29662 WT2      1471     TIP3     OH2      OT      -0.834000       15.9994           0
     29663 WT2      1471     TIP3     H1       HT       0.417000        1.0080           0
     29664 WT2      1471     TIP3     H2       HT       0.417000        1.0080           0
     29665 WT2      1474     TIP3     OH2      OT      -0.834000       15.9994           0
     29666 WT2      1474     TIP3     H1       HT       0.417000        1.0080           0
     29667 WT2      1474     TIP3     H2       HT       0.417000        1.0080           0
     29668 WT2      1475     TIP3     OH2      OT      -0.834000       15.9994           0
     29669 WT2      1475     TIP3     H1       HT       0.417000        1.0080           0
     29670 WT2      1475     TIP3     H2       HT       0.417000        1.0080           0
     29671 WT2      1477     TIP3     OH2      OT      -0.834000       15.9994           0
     29672 WT2      1477     TIP3     H1       HT       0.417000        1.0080           0
     29673 WT2      1477     TIP3     H2       HT       0.417000        1.0080           0
     29674 WT2      1478     TIP3     OH2      OT      -0.834000       15.9994           0
     29675 WT2      1478     TIP3     H1       HT       0.417000        1.0080           0
     29676 WT2      1478     TIP3     H2       HT       0.417000        1.0080           0
     29677 WT2      1480     TIP3     OH2      OT      -0.834000       15.9994           0
     29678 WT2      1480     TIP3     H1       HT       0.417000        1.0080           0
     29679 WT2      1480     TIP3     H2       HT       0.417000        1.0080           0
     29680 WT2      1492     TIP3     OH2      OT      -0.834000       15.9994           0
     29681 WT2      1492     TIP3     H1       HT       0.417000        1.0080           0
     29682 WT2      1492     TIP3     H2       HT       0.417000        1.0080           0
     29683 WT2      1493     TIP3     OH2      OT      -0.834000       15.9994           0
     29684 WT2      1493     TIP3     H1       HT       0.417000        1.0080           0
     29685 WT2      1493     TIP3     H2       HT       0.417000        1.0080           0
     29686 WT2      1494     TIP3     OH2      OT      -0.834000       15.9994           0
     29687 WT2      1494     TIP3     H1       HT       0.417000        1.0080           0
     29688 WT2      1494     TIP3     H2       HT       0.417000        1.0080           0
     29689 WT2      1496     TIP3     OH2      OT      -0.834000       15.9994           0
     29690 WT2      1496     TIP3     H1       HT       0.417000        1.0080           0
     29691 WT2      1496     TIP3     H2       HT       0.417000        1.0080           0
     29692 WT2      1497     TIP3     OH2      OT      -0.834000       15.9994           0
     29693 WT2      1497     TIP3     H1       HT       0.417000        1.0080           0
     29694 WT2      1497     TIP3     H2       HT       0.417000        1.0080           0
     29695 WT2      1498     TIP3     OH2      OT      -0.834000       15.9994           0
     29696 WT2      1498     TIP3     H1       HT       0.417000        1.0080           0
     29697 WT2      1498     TIP3     H2       HT       0.417000        1.0080           0
     29698 WT2      1499     TIP3     OH2      OT      -0.834000       15.9994           0
     29699 WT2      1499     TIP3     H1       HT       0.417000        1.0080           0
     29700 WT2      1499     TIP3     H2       HT       0.417000        1.0080           0
     29701 WT2      1512     TIP3     OH2      OT      -0.834000       15.9994           0
     29702 WT2      1512     TIP3     H1       HT       0.417000        1.0080           0
     29703 WT2      1512     TIP3     H2       HT       0.417000        1.0080           0
     29704 WT2      1514     TIP3     OH2      OT      -0.834000       15.9994           0
     29705 WT2      1514     TIP3     H1       HT       0.417000        1.0080           0
     29706 WT2      1514     TIP3     H2       HT       0.417000        1.0080           0
     29707 WT2      1515     TIP3     OH2      OT      -0.834000       15.9994           0
     29708 WT2      1515     TIP3     H1       HT       0.417000        1.0080           0
     29709 WT2      1515     TIP3     H2       HT       0.417000        1.0080           0
     29710 WT2      1519     TIP3     OH2      OT      -0.834000       15.9994           0
     29711 WT2      1519     TIP3     H1       HT       0.417000        1.0080           0
     29712 WT2      1519     TIP3     H2       HT       0.417000        1.0080           0
     29713 WT2      1531     TIP3     OH2      OT      -0.834000       15.9994           0
     29714 WT2      1531     TIP3     H1       HT       0.417000        1.0080           0
     29715 WT2      1531     TIP3     H2       HT       0.417000        1.0080           0
     29716 WT2      1532     TIP3     OH2      OT      -0.834000       15.9994           0
     29717 WT2      1532     TIP3     H1       HT       0.417000        1.0080           0
     29718 WT2      1532     TIP3     H2       HT       0.417000        1.0080           0
     29719 WT2      1534     TIP3     OH2      OT      -0.834000       15.9994           0
     29720 WT2      1534     TIP3     H1       HT       0.417000        1.0080           0
     29721 WT2      1534     TIP3     H2       HT       0.417000        1.0080           0
     29722 WT2      1535     TIP3     OH2      OT      -0.834000       15.9994           0
     29723 WT2      1535     TIP3     H1       HT       0.417000        1.0080           0
     29724 WT2      1535     TIP3     H2       HT       0.417000        1.0080           0
     29725 WT2      1536     TIP3     OH2      OT      -0.834000       15.9994           0
     29726 WT2      1536     TIP3     H1       HT       0.417000        1.0080           0
     29727 WT2      1536     TIP3     H2       HT       0.417000        1.0080           0
     29728 WT2      1537     TIP3     OH2      OT      -0.834000       15.9994           0
     29729 WT2      1537     TIP3     H1       HT       0.417000        1.0080           0
     29730 WT2      1537     TIP3     H2       HT       0.417000        1.0080           0
     29731 WT2      1538     TIP3     OH2      OT      -0.834000       15.9994           0
     29732 WT2      1538     TIP3     H1       HT       0.417000        1.0080           0
     29733 WT2      1538     TIP3     H2       HT       0.417000        1.0080           0
     29734 WT2      1539     TIP3     OH2      OT      -0.834000       15.9994           0
     29735 WT2      1539     TIP3     H1       HT       0.417000        1.0080           0
     29736 WT2      1539     TIP3     H2       HT       0.417000        1.0080           0
     29737 WT2      1540     TIP3     OH2      OT      -0.834000       15.9994           0
     29738 WT2      1540     TIP3     H1       HT       0.417000        1.0080           0
     29739 WT2      1540     TIP3     H2       HT       0.417000        1.0080           0
     29740 WT2      1551     TIP3     OH2      OT      -0.834000       15.9994           0
     29741 WT2      1551     TIP3     H1       HT       0.417000        1.0080           0
     29742 WT2      1551     TIP3     H2       HT       0.417000        1.0080           0
     29743 WT2      1552     TIP3     OH2      OT      -0.834000       15.9994           0
     29744 WT2      1552     TIP3     H1       HT       0.417000        1.0080           0
     29745 WT2      1552     TIP3     H2       HT       0.417000        1.0080           0
     29746 WT2      1555     TIP3     OH2      OT      -0.834000       15.9994           0
     29747 WT2      1555     TIP3     H1       HT       0.417000        1.0080           0
     29748 WT2      1555     TIP3     H2       HT       0.417000        1.0080           0
     29749 WT2      1558     TIP3     OH2      OT      -0.834000       15.9994           0
     29750 WT2      1558     TIP3     H1       HT       0.417000        1.0080           0
     29751 WT2      1558     TIP3     H2       HT       0.417000        1.0080           0
     29752 WT2      1559     TIP3     OH2      OT      -0.834000       15.9994           0
     29753 WT2      1559     TIP3     H1       HT       0.417000        1.0080           0
     29754 WT2      1559     TIP3     H2       HT       0.417000        1.0080           0
     29755 WT2      1560     TIP3     OH2      OT      -0.834000       15.9994           0
     29756 WT2      1560     TIP3     H1       HT       0.417000        1.0080           0
     29757 WT2      1560     TIP3     H2       HT       0.417000        1.0080           0
     29758 WT2      1561     TIP3     OH2      OT      -0.834000       15.9994           0
     29759 WT2      1561     TIP3     H1       HT       0.417000        1.0080           0
     29760 WT2      1561     TIP3     H2       HT       0.417000        1.0080           0
     29761 WT2      1563     TIP3     OH2      OT      -0.834000       15.9994           0
     29762 WT2      1563     TIP3     H1       HT       0.417000        1.0080           0
     29763 WT2      1563     TIP3     H2       HT       0.417000        1.0080           0
     29764 WT2      1576     TIP3     OH2      OT      -0.834000       15.9994           0
     29765 WT2      1576     TIP3     H1       HT       0.417000        1.0080           0
     29766 WT2      1576     TIP3     H2       HT       0.417000        1.0080           0
     29767 WT2      1577     TIP3     OH2      OT      -0.834000       15.9994           0
     29768 WT2      1577     TIP3     H1       HT       0.417000        1.0080           0
     29769 WT2      1577     TIP3     H2       HT       0.417000        1.0080           0
     29770 WT2      1578     TIP3     OH2      OT      -0.834000       15.9994           0
     29771 WT2      1578     TIP3     H1       HT       0.417000        1.0080           0
     29772 WT2      1578     TIP3     H2       HT       0.417000        1.0080           0
     29773 WT2      1579     TIP3     OH2      OT      -0.834000       15.9994           0
     29774 WT2      1579     TIP3     H1       HT       0.417000        1.0080           0
     29775 WT2      1579     TIP3     H2       HT       0.417000        1.0080           0
     29776 WT2      1580     TIP3     OH2      OT      -0.834000       15.9994           0
     29777 WT2      1580     TIP3     H1       HT       0.417000        1.0080           0
     29778 WT2      1580     TIP3     H2       HT       0.417000        1.0080           0
     29779 WT2      1581     TIP3     OH2      OT      -0.834000       15.9994           0
     29780 WT2      1581     TIP3     H1       HT       0.417000        1.0080           0
     29781 WT2      1581     TIP3     H2       HT       0.417000        1.0080           0
     29782 WT2      1582     TIP3     OH2      OT      -0.834000       15.9994           0
     29783 WT2      1582     TIP3     H1       HT       0.417000        1.0080           0
     29784 WT2      1582     TIP3     H2       HT       0.417000        1.0080           0
     29785 WT2      1583     TIP3     OH2      OT      -0.834000       15.9994           0
     29786 WT2      1583     TIP3     H1       HT       0.417000        1.0080           0
     29787 WT2      1583     TIP3     H2       HT       0.417000        1.0080           0
     29788 WT2      1584     TIP3     OH2      OT      -0.834000       15.9994           0
     29789 WT2      1584     TIP3     H1       HT       0.417000        1.0080           0
     29790 WT2      1584     TIP3     H2       HT       0.417000        1.0080           0
     29791 WT2      1599     TIP3     OH2      OT      -0.834000       15.9994           0
     29792 WT2      1599     TIP3     H1       HT       0.417000        1.0080           0
     29793 WT2      1599     TIP3     H2       HT       0.417000        1.0080           0
     29794 WT2      1600     TIP3     OH2      OT      -0.834000       15.9994           0
     29795 WT2      1600     TIP3     H1       HT       0.417000        1.0080           0
     29796 WT2      1600     TIP3     H2       HT       0.417000        1.0080           0
     29797 WT2      1601     TIP3     OH2      OT      -0.834000       15.9994           0
     29798 WT2      1601     TIP3     H1       HT       0.417000        1.0080           0
     29799 WT2      1601     TIP3     H2       HT       0.417000        1.0080           0
     29800 WT2      1604     TIP3     OH2      OT      -0.834000       15.9994           0
     29801 WT2      1604     TIP3     H1       HT       0.417000        1.0080           0
     29802 WT2      1604     TIP3     H2       HT       0.417000        1.0080           0
     29803 WT2      1605     TIP3     OH2      OT      -0.834000       15.9994           0
     29804 WT2      1605     TIP3     H1       HT       0.417000        1.0080           0
     29805 WT2      1605     TIP3     H2       HT       0.417000        1.0080           0
     29806 WT2      1611     TIP3     OH2      OT      -0.834000       15.9994           0
     29807 WT2      1611     TIP3     H1       HT       0.417000        1.0080           0
     29808 WT2      1611     TIP3     H2       HT       0.417000        1.0080           0
     29809 WT2      1616     TIP3     OH2      OT      -0.834000       15.9994           0
     29810 WT2      1616     TIP3     H1       HT       0.417000        1.0080           0
     29811 WT2      1616     TIP3     H2       HT       0.417000        1.0080           0
     29812 WT2      1617     TIP3     OH2      OT      -0.834000       15.9994           0
     29813 WT2      1617     TIP3     H1       HT       0.417000        1.0080           0
     29814 WT2      1617     TIP3     H2       HT       0.417000        1.0080           0
     29815 WT2      1618     TIP3     OH2      OT      -0.834000       15.9994           0
     29816 WT2      1618     TIP3     H1       HT       0.417000        1.0080           0
     29817 WT2      1618     TIP3     H2       HT       0.417000        1.0080           0
     29818 WT2      1620     TIP3     OH2      OT      -0.834000       15.9994           0
     29819 WT2      1620     TIP3     H1       HT       0.417000        1.0080           0
     29820 WT2      1620     TIP3     H2       HT       0.417000        1.0080           0
     29821 WT2      1621     TIP3     OH2      OT      -0.834000       15.9994           0
     29822 WT2      1621     TIP3     H1       HT       0.417000        1.0080           0
     29823 WT2      1621     TIP3     H2       HT       0.417000        1.0080           0
     29824 WT2      1622     TIP3     OH2      OT      -0.834000       15.9994           0
     29825 WT2      1622     TIP3     H1       HT       0.417000        1.0080           0
     29826 WT2      1622     TIP3     H2       HT       0.417000        1.0080           0
     29827 WT2      1623     TIP3     OH2      OT      -0.834000       15.9994           0
     29828 WT2      1623     TIP3     H1       HT       0.417000        1.0080           0
     29829 WT2      1623     TIP3     H2       HT       0.417000        1.0080           0
     29830 WT2      1624     TIP3     OH2      OT      -0.834000       15.9994           0
     29831 WT2      1624     TIP3     H1       HT       0.417000        1.0080           0
     29832 WT2      1624     TIP3     H2       HT       0.417000        1.0080           0
     29833 WT2      1625     TIP3     OH2      OT      -0.834000       15.9994           0
     29834 WT2      1625     TIP3     H1       HT       0.417000        1.0080           0
     29835 WT2      1625     TIP3     H2       HT       0.417000        1.0080           0
     29836 WT2      1628     TIP3     OH2      OT      -0.834000       15.9994           0
     29837 WT2      1628     TIP3     H1       HT       0.417000        1.0080           0
     29838 WT2      1628     TIP3     H2       HT       0.417000        1.0080           0
     29839 WT2      1638     TIP3     OH2      OT      -0.834000       15.9994           0
     29840 WT2      1638     TIP3     H1       HT       0.417000        1.0080           0
     29841 WT2      1638     TIP3     H2       HT       0.417000        1.0080           0
     29842 WT2      1639     TIP3     OH2      OT      -0.834000       15.9994           0
     29843 WT2      1639     TIP3     H1       HT       0.417000        1.0080           0
     29844 WT2      1639     TIP3     H2       HT       0.417000        1.0080           0
     29845 WT2      1640     TIP3     OH2      OT      -0.834000       15.9994           0
     29846 WT2      1640     TIP3     H1       HT       0.417000        1.0080           0
     29847 WT2      1640     TIP3     H2       HT       0.417000        1.0080           0
     29848 WT2      1641     TIP3     OH2      OT      -0.834000       15.9994           0
     29849 WT2      1641     TIP3     H1       HT       0.417000        1.0080           0
     29850 WT2      1641     TIP3     H2       HT       0.417000        1.0080           0
     29851 WT2      1643     TIP3     OH2      OT      -0.834000       15.9994           0
     29852 WT2      1643     TIP3     H1       HT       0.417000        1.0080           0
     29853 WT2      1643     TIP3     H2       HT       0.417000        1.0080           0
     29854 WT2      1645     TIP3     OH2      OT      -0.834000       15.9994           0
     29855 WT2      1645     TIP3     H1       HT       0.417000        1.0080           0
     29856 WT2      1645     TIP3     H2       HT       0.417000        1.0080           0
     29857 WT2      1647     TIP3     OH2      OT      -0.834000       15.9994           0
     29858 WT2      1647     TIP3     H1       HT       0.417000        1.0080           0
     29859 WT2      1647     TIP3     H2       HT       0.417000        1.0080           0
     29860 WT2      1648     TIP3     OH2      OT      -0.834000       15.9994           0
     29861 WT2      1648     TIP3     H1       HT       0.417000        1.0080           0
     29862 WT2      1648     TIP3     H2       HT       0.417000        1.0080           0
     29863 WT2      1656     TIP3     OH2      OT      -0.834000       15.9994           0
     29864 WT2      1656     TIP3     H1       HT       0.417000        1.0080           0
     29865 WT2      1656     TIP3     H2       HT       0.417000        1.0080           0
     29866 WT2      1658     TIP3     OH2      OT      -0.834000       15.9994           0
     29867 WT2      1658     TIP3     H1       HT       0.417000        1.0080           0
     29868 WT2      1658     TIP3     H2       HT       0.417000        1.0080           0
     29869 WT2      1659     TIP3     OH2      OT      -0.834000       15.9994           0
     29870 WT2      1659     TIP3     H1       HT       0.417000        1.0080           0
     29871 WT2      1659     TIP3     H2       HT       0.417000        1.0080           0
     29872 WT2      1661     TIP3     OH2      OT      -0.834000       15.9994           0
     29873 WT2      1661     TIP3     H1       HT       0.417000        1.0080           0
     29874 WT2      1661     TIP3     H2       HT       0.417000        1.0080           0
     29875 WT2      1662     TIP3     OH2      OT      -0.834000       15.9994           0
     29876 WT2      1662     TIP3     H1       HT       0.417000        1.0080           0
     29877 WT2      1662     TIP3     H2       HT       0.417000        1.0080           0
     29878 WT2      1663     TIP3     OH2      OT      -0.834000       15.9994           0
     29879 WT2      1663     TIP3     H1       HT       0.417000        1.0080           0
     29880 WT2      1663     TIP3     H2       HT       0.417000        1.0080           0
     29881 WT2      1664     TIP3     OH2      OT      -0.834000       15.9994           0
     29882 WT2      1664     TIP3     H1       HT       0.417000        1.0080           0
     29883 WT2      1664     TIP3     H2       HT       0.417000        1.0080           0
     29884 WT2      1665     TIP3     OH2      OT      -0.834000       15.9994           0
     29885 WT2      1665     TIP3     H1       HT       0.417000        1.0080           0
     29886 WT2      1665     TIP3     H2       HT       0.417000        1.0080           0
     29887 WT2      1666     TIP3     OH2      OT      -0.834000       15.9994           0
     29888 WT2      1666     TIP3     H1       HT       0.417000        1.0080           0
     29889 WT2      1666     TIP3     H2       HT       0.417000        1.0080           0
     29890 WT2      1667     TIP3     OH2      OT      -0.834000       15.9994           0
     29891 WT2      1667     TIP3     H1       HT       0.417000        1.0080           0
     29892 WT2      1667     TIP3     H2       HT       0.417000        1.0080           0
     29893 WT2      1681     TIP3     OH2      OT      -0.834000       15.9994           0
     29894 WT2      1681     TIP3     H1       HT       0.417000        1.0080           0
     29895 WT2      1681     TIP3     H2       HT       0.417000        1.0080           0
     29896 WT2      1683     TIP3     OH2      OT      -0.834000       15.9994           0
     29897 WT2      1683     TIP3     H1       HT       0.417000        1.0080           0
     29898 WT2      1683     TIP3     H2       HT       0.417000        1.0080           0
     29899 WT2      1684     TIP3     OH2      OT      -0.834000       15.9994           0
     29900 WT2      1684     TIP3     H1       HT       0.417000        1.0080           0
     29901 WT2      1684     TIP3     H2       HT       0.417000        1.0080           0
     29902 WT2      1685     TIP3     OH2      OT      -0.834000       15.9994           0
     29903 WT2      1685     TIP3     H1       HT       0.417000        1.0080           0
     29904 WT2      1685     TIP3     H2       HT       0.417000        1.0080           0
     29905 WT2      1686     TIP3     OH2      OT      -0.834000       15.9994           0
     29906 WT2      1686     TIP3     H1       HT       0.417000        1.0080           0
     29907 WT2      1686     TIP3     H2       HT       0.417000        1.0080           0
     29908 WT2      1687     TIP3     OH2      OT      -0.834000       15.9994           0
     29909 WT2      1687     TIP3     H1       HT       0.417000        1.0080           0
     29910 WT2      1687     TIP3     H2       HT       0.417000        1.0080           0
     29911 WT2      1688     TIP3     OH2      OT      -0.834000       15.9994           0
     29912 WT2      1688     TIP3     H1       HT       0.417000        1.0080           0
     29913 WT2      1688     TIP3     H2       HT       0.417000        1.0080           0
     29914 WT2      1689     TIP3     OH2      OT      -0.834000       15.9994           0
     29915 WT2      1689     TIP3     H1       HT       0.417000        1.0080           0
     29916 WT2      1689     TIP3     H2       HT       0.417000        1.0080           0
     29917 WT2      1691     TIP3     OH2      OT      -0.834000       15.9994           0
     29918 WT2      1691     TIP3     H1       HT       0.417000        1.0080           0
     29919 WT2      1691     TIP3     H2       HT       0.417000        1.0080           0
     29920 WT2      1701     TIP3     OH2      OT      -0.834000       15.9994           0
     29921 WT2      1701     TIP3     H1       HT       0.417000        1.0080           0
     29922 WT2      1701     TIP3     H2       HT       0.417000        1.0080           0
     29923 WT2      1702     TIP3     OH2      OT      -0.834000       15.9994           0
     29924 WT2      1702     TIP3     H1       HT       0.417000        1.0080           0
     29925 WT2      1702     TIP3     H2       HT       0.417000        1.0080           0
     29926 WT2      1704     TIP3     OH2      OT      -0.834000       15.9994           0
     29927 WT2      1704     TIP3     H1       HT       0.417000        1.0080           0
     29928 WT2      1704     TIP3     H2       HT       0.417000        1.0080           0
     29929 WT2      1706     TIP3     OH2      OT      -0.834000       15.9994           0
     29930 WT2      1706     TIP3     H1       HT       0.417000        1.0080           0
     29931 WT2      1706     TIP3     H2       HT       0.417000        1.0080           0
     29932 WT2      1707     TIP3     OH2      OT      -0.834000       15.9994           0
     29933 WT2      1707     TIP3     H1       HT       0.417000        1.0080           0
     29934 WT2      1707     TIP3     H2       HT       0.417000        1.0080           0
     29935 WT2      1708     TIP3     OH2      OT      -0.834000       15.9994           0
     29936 WT2      1708     TIP3     H1       HT       0.417000        1.0080           0
     29937 WT2      1708     TIP3     H2       HT       0.417000        1.0080           0
     29938 WT2      1710     TIP3     OH2      OT      -0.834000       15.9994           0
     29939 WT2      1710     TIP3     H1       HT       0.417000        1.0080           0
     29940 WT2      1710     TIP3     H2       HT       0.417000        1.0080           0
     29941 WT2      1723     TIP3     OH2      OT      -0.834000       15.9994           0
     29942 WT2      1723     TIP3     H1       HT       0.417000        1.0080           0
     29943 WT2      1723     TIP3     H2       HT       0.417000        1.0080           0
     29944 WT2      1725     TIP3     OH2      OT      -0.834000       15.9994           0
     29945 WT2      1725     TIP3     H1       HT       0.417000        1.0080           0
     29946 WT2      1725     TIP3     H2       HT       0.417000        1.0080           0
     29947 WT2      1728     TIP3     OH2      OT      -0.834000       15.9994           0
     29948 WT2      1728     TIP3     H1       HT       0.417000        1.0080           0
     29949 WT2      1728     TIP3     H2       HT       0.417000        1.0080           0
     29950 WT2      1729     TIP3     OH2      OT      -0.834000       15.9994           0
     29951 WT2      1729     TIP3     H1       HT       0.417000        1.0080           0
     29952 WT2      1729     TIP3     H2       HT       0.417000        1.0080           0
     29953 WT2      1730     TIP3     OH2      OT      -0.834000       15.9994           0
     29954 WT2      1730     TIP3     H1       HT       0.417000        1.0080           0
     29955 WT2      1730     TIP3     H2       HT       0.417000        1.0080           0
     29956 WT2      1731     TIP3     OH2      OT      -0.834000       15.9994           0
     29957 WT2      1731     TIP3     H1       HT       0.417000        1.0080           0
     29958 WT2      1731     TIP3     H2       HT       0.417000        1.0080           0
     29959 WT2      1733     TIP3     OH2      OT      -0.834000       15.9994           0
     29960 WT2      1733     TIP3     H1       HT       0.417000        1.0080           0
     29961 WT2      1733     TIP3     H2       HT       0.417000        1.0080           0
     29962 WT2      1738     TIP3     OH2      OT      -0.834000       15.9994           0
     29963 WT2      1738     TIP3     H1       HT       0.417000        1.0080           0
     29964 WT2      1738     TIP3     H2       HT       0.417000        1.0080           0
     29965 WT2      1744     TIP3     OH2      OT      -0.834000       15.9994           0
     29966 WT2      1744     TIP3     H1       HT       0.417000        1.0080           0
     29967 WT2      1744     TIP3     H2       HT       0.417000        1.0080           0
     29968 WT2      1746     TIP3     OH2      OT      -0.834000       15.9994           0
     29969 WT2      1746     TIP3     H1       HT       0.417000        1.0080           0
     29970 WT2      1746     TIP3     H2       HT       0.417000        1.0080           0
     29971 WT2      1747     TIP3     OH2      OT      -0.834000       15.9994           0
     29972 WT2      1747     TIP3     H1       HT       0.417000        1.0080           0
     29973 WT2      1747     TIP3     H2       HT       0.417000        1.0080           0
     29974 WT2      1748     TIP3     OH2      OT      -0.834000       15.9994           0
     29975 WT2      1748     TIP3     H1       HT       0.417000        1.0080           0
     29976 WT2      1748     TIP3     H2       HT       0.417000        1.0080           0
     29977 WT2      1749     TIP3     OH2      OT      -0.834000       15.9994           0
     29978 WT2      1749     TIP3     H1       HT       0.417000        1.0080           0
     29979 WT2      1749     TIP3     H2       HT       0.417000        1.0080           0
     29980 WT2      1750     TIP3     OH2      OT      -0.834000       15.9994           0
     29981 WT2      1750     TIP3     H1       HT       0.417000        1.0080           0
     29982 WT2      1750     TIP3     H2       HT       0.417000        1.0080           0
     29983 WT2      1751     TIP3     OH2      OT      -0.834000       15.9994           0
     29984 WT2      1751     TIP3     H1       HT       0.417000        1.0080           0
     29985 WT2      1751     TIP3     H2       HT       0.417000        1.0080           0
     29986 WT2      1752     TIP3     OH2      OT      -0.834000       15.9994           0
     29987 WT2      1752     TIP3     H1       HT       0.417000        1.0080           0
     29988 WT2      1752     TIP3     H2       HT       0.417000        1.0080           0
     29989 WT2      1764     TIP3     OH2      OT      -0.834000       15.9994           0
     29990 WT2      1764     TIP3     H1       HT       0.417000        1.0080           0
     29991 WT2      1764     TIP3     H2       HT       0.417000        1.0080           0
     29992 WT2      1766     TIP3     OH2      OT      -0.834000       15.9994           0
     29993 WT2      1766     TIP3     H1       HT       0.417000        1.0080           0
     29994 WT2      1766     TIP3     H2       HT       0.417000        1.0080           0
     29995 WT2      1767     TIP3     OH2      OT      -0.834000       15.9994           0
     29996 WT2      1767     TIP3     H1       HT       0.417000        1.0080           0
     29997 WT2      1767     TIP3     H2       HT       0.417000        1.0080           0
     29998 WT2      1768     TIP3     OH2      OT      -0.834000       15.9994           0
     29999 WT2      1768     TIP3     H1       HT       0.417000        1.0080           0
     30000 WT2      1768     TIP3     H2       HT       0.417000        1.0080           0
     30001 WT2      1769     TIP3     OH2      OT      -0.834000       15.9994           0
     30002 WT2      1769     TIP3     H1       HT       0.417000        1.0080           0
     30003 WT2      1769     TIP3     H2       HT       0.417000        1.0080           0
     30004 WT2      1770     TIP3     OH2      OT      -0.834000       15.9994           0
     30005 WT2      1770     TIP3     H1       HT       0.417000        1.0080           0
     30006 WT2      1770     TIP3     H2       HT       0.417000        1.0080           0
     30007 WT2      1771     TIP3     OH2      OT      -0.834000       15.9994           0
     30008 WT2      1771     TIP3     H1       HT       0.417000        1.0080           0
     30009 WT2      1771     TIP3     H2       HT       0.417000        1.0080           0
     30010 WT2      1773     TIP3     OH2      OT      -0.834000       15.9994           0
     30011 WT2      1773     TIP3     H1       HT       0.417000        1.0080           0
     30012 WT2      1773     TIP3     H2       HT       0.417000        1.0080           0
     30013 WT2      1784     TIP3     OH2      OT      -0.834000       15.9994           0
     30014 WT2      1784     TIP3     H1       HT       0.417000        1.0080           0
     30015 WT2      1784     TIP3     H2       HT       0.417000        1.0080           0
     30016 WT2      1785     TIP3     OH2      OT      -0.834000       15.9994           0
     30017 WT2      1785     TIP3     H1       HT       0.417000        1.0080           0
     30018 WT2      1785     TIP3     H2       HT       0.417000        1.0080           0
     30019 WT2      1788     TIP3     OH2      OT      -0.834000       15.9994           0
     30020 WT2      1788     TIP3     H1       HT       0.417000        1.0080           0
     30021 WT2      1788     TIP3     H2       HT       0.417000        1.0080           0
     30022 WT2      1789     TIP3     OH2      OT      -0.834000       15.9994           0
     30023 WT2      1789     TIP3     H1       HT       0.417000        1.0080           0
     30024 WT2      1789     TIP3     H2       HT       0.417000        1.0080           0
     30025 WT2      1790     TIP3     OH2      OT      -0.834000       15.9994           0
     30026 WT2      1790     TIP3     H1       HT       0.417000        1.0080           0
     30027 WT2      1790     TIP3     H2       HT       0.417000        1.0080           0
     30028 WT2      1791     TIP3     OH2      OT      -0.834000       15.9994           0
     30029 WT2      1791     TIP3     H1       HT       0.417000        1.0080           0
     30030 WT2      1791     TIP3     H2       HT       0.417000        1.0080           0
     30031 WT2      1792     TIP3     OH2      OT      -0.834000       15.9994           0
     30032 WT2      1792     TIP3     H1       HT       0.417000        1.0080           0
     30033 WT2      1792     TIP3     H2       HT       0.417000        1.0080           0
     30034 WT2      1793     TIP3     OH2      OT      -0.834000       15.9994           0
     30035 WT2      1793     TIP3     H1       HT       0.417000        1.0080           0
     30036 WT2      1793     TIP3     H2       HT       0.417000        1.0080           0
     30037 WT2      1795     TIP3     OH2      OT      -0.834000       15.9994           0
     30038 WT2      1795     TIP3     H1       HT       0.417000        1.0080           0
     30039 WT2      1795     TIP3     H2       HT       0.417000        1.0080           0
     30040 WT2      1796     TIP3     OH2      OT      -0.834000       15.9994           0
     30041 WT2      1796     TIP3     H1       HT       0.417000        1.0080           0
     30042 WT2      1796     TIP3     H2       HT       0.417000        1.0080           0
     30043 WT2      1808     TIP3     OH2      OT      -0.834000       15.9994           0
     30044 WT2      1808     TIP3     H1       HT       0.417000        1.0080           0
     30045 WT2      1808     TIP3     H2       HT       0.417000        1.0080           0
     30046 WT2      1810     TIP3     OH2      OT      -0.834000       15.9994           0
     30047 WT2      1810     TIP3     H1       HT       0.417000        1.0080           0
     30048 WT2      1810     TIP3     H2       HT       0.417000        1.0080           0
     30049 WT2      1811     TIP3     OH2      OT      -0.834000       15.9994           0
     30050 WT2      1811     TIP3     H1       HT       0.417000        1.0080           0
     30051 WT2      1811     TIP3     H2       HT       0.417000        1.0080           0
     30052 WT2      1813     TIP3     OH2      OT      -0.834000       15.9994           0
     30053 WT2      1813     TIP3     H1       HT       0.417000        1.0080           0
     30054 WT2      1813     TIP3     H2       HT       0.417000        1.0080           0
     30055 WT2      1814     TIP3     OH2      OT      -0.834000       15.9994           0
     30056 WT2      1814     TIP3     H1       HT       0.417000        1.0080           0
     30057 WT2      1814     TIP3     H2       HT       0.417000        1.0080           0
     30058 WT2      1816     TIP3     OH2      OT      -0.834000       15.9994           0
     30059 WT2      1816     TIP3     H1       HT       0.417000        1.0080           0
     30060 WT2      1816     TIP3     H2       HT       0.417000        1.0080           0
     30061 WT2      1824     TIP3     OH2      OT      -0.834000       15.9994           0
     30062 WT2      1824     TIP3     H1       HT       0.417000        1.0080           0
     30063 WT2      1824     TIP3     H2       HT       0.417000        1.0080           0
     30064 WT2      1826     TIP3     OH2      OT      -0.834000       15.9994           0
     30065 WT2      1826     TIP3     H1       HT       0.417000        1.0080           0
     30066 WT2      1826     TIP3     H2       HT       0.417000        1.0080           0
     30067 WT2      1829     TIP3     OH2      OT      -0.834000       15.9994           0
     30068 WT2      1829     TIP3     H1       HT       0.417000        1.0080           0
     30069 WT2      1829     TIP3     H2       HT       0.417000        1.0080           0
     30070 WT2      1830     TIP3     OH2      OT      -0.834000       15.9994           0
     30071 WT2      1830     TIP3     H1       HT       0.417000        1.0080           0
     30072 WT2      1830     TIP3     H2       HT       0.417000        1.0080           0
     30073 WT2      1831     TIP3     OH2      OT      -0.834000       15.9994           0
     30074 WT2      1831     TIP3     H1       HT       0.417000        1.0080           0
     30075 WT2      1831     TIP3     H2       HT       0.417000        1.0080           0
     30076 WT2      1832     TIP3     OH2      OT      -0.834000       15.9994           0
     30077 WT2      1832     TIP3     H1       HT       0.417000        1.0080           0
     30078 WT2      1832     TIP3     H2       HT       0.417000        1.0080           0
     30079 WT2      1835     TIP3     OH2      OT      -0.834000       15.9994           0
     30080 WT2      1835     TIP3     H1       HT       0.417000        1.0080           0
     30081 WT2      1835     TIP3     H2       HT       0.417000        1.0080           0
     30082 WT2      1836     TIP3     OH2      OT      -0.834000       15.9994           0
     30083 WT2      1836     TIP3     H1       HT       0.417000        1.0080           0
     30084 WT2      1836     TIP3     H2       HT       0.417000        1.0080           0
     30085 WT2      1837     TIP3     OH2      OT      -0.834000       15.9994           0
     30086 WT2      1837     TIP3     H1       HT       0.417000        1.0080           0
     30087 WT2      1837     TIP3     H2       HT       0.417000        1.0080           0
     30088 WT2      1838     TIP3     OH2      OT      -0.834000       15.9994           0
     30089 WT2      1838     TIP3     H1       HT       0.417000        1.0080           0
     30090 WT2      1838     TIP3     H2       HT       0.417000        1.0080           0
     30091 WT2      1847     TIP3     OH2      OT      -0.834000       15.9994           0
     30092 WT2      1847     TIP3     H1       HT       0.417000        1.0080           0
     30093 WT2      1847     TIP3     H2       HT       0.417000        1.0080           0
     30094 WT2      1850     TIP3     OH2      OT      -0.834000       15.9994           0
     30095 WT2      1850     TIP3     H1       HT       0.417000        1.0080           0
     30096 WT2      1850     TIP3     H2       HT       0.417000        1.0080           0
     30097 WT2      1851     TIP3     OH2      OT      -0.834000       15.9994           0
     30098 WT2      1851     TIP3     H1       HT       0.417000        1.0080           0
     30099 WT2      1851     TIP3     H2       HT       0.417000        1.0080           0
     30100 WT2      1852     TIP3     OH2      OT      -0.834000       15.9994           0
     30101 WT2      1852     TIP3     H1       HT       0.417000        1.0080           0
     30102 WT2      1852     TIP3     H2       HT       0.417000        1.0080           0
     30103 WT2      1853     TIP3     OH2      OT      -0.834000       15.9994           0
     30104 WT2      1853     TIP3     H1       HT       0.417000        1.0080           0
     30105 WT2      1853     TIP3     H2       HT       0.417000        1.0080           0
     30106 WT2      1854     TIP3     OH2      OT      -0.834000       15.9994           0
     30107 WT2      1854     TIP3     H1       HT       0.417000        1.0080           0
     30108 WT2      1854     TIP3     H2       HT       0.417000        1.0080           0
     30109 WT2      1855     TIP3     OH2      OT      -0.834000       15.9994           0
     30110 WT2      1855     TIP3     H1       HT       0.417000        1.0080           0
     30111 WT2      1855     TIP3     H2       HT       0.417000        1.0080           0
     30112 WT2      1856     TIP3     OH2      OT      -0.834000       15.9994           0
     30113 WT2      1856     TIP3     H1       HT       0.417000        1.0080           0
     30114 WT2      1856     TIP3     H2       HT       0.417000        1.0080           0
     30115 WT2      1861     TIP3     OH2      OT      -0.834000       15.9994           0
     30116 WT2      1861     TIP3     H1       HT       0.417000        1.0080           0
     30117 WT2      1861     TIP3     H2       HT       0.417000        1.0080           0
     30118 WT2      1870     TIP3     OH2      OT      -0.834000       15.9994           0
     30119 WT2      1870     TIP3     H1       HT       0.417000        1.0080           0
     30120 WT2      1870     TIP3     H2       HT       0.417000        1.0080           0
     30121 WT2      1871     TIP3     OH2      OT      -0.834000       15.9994           0
     30122 WT2      1871     TIP3     H1       HT       0.417000        1.0080           0
     30123 WT2      1871     TIP3     H2       HT       0.417000        1.0080           0
     30124 WT2      1872     TIP3     OH2      OT      -0.834000       15.9994           0
     30125 WT2      1872     TIP3     H1       HT       0.417000        1.0080           0
     30126 WT2      1872     TIP3     H2       HT       0.417000        1.0080           0
     30127 WT2      1873     TIP3     OH2      OT      -0.834000       15.9994           0
     30128 WT2      1873     TIP3     H1       HT       0.417000        1.0080           0
     30129 WT2      1873     TIP3     H2       HT       0.417000        1.0080           0
     30130 WT2      1874     TIP3     OH2      OT      -0.834000       15.9994           0
     30131 WT2      1874     TIP3     H1       HT       0.417000        1.0080           0
     30132 WT2      1874     TIP3     H2       HT       0.417000        1.0080           0
     30133 WT2      1875     TIP3     OH2      OT      -0.834000       15.9994           0
     30134 WT2      1875     TIP3     H1       HT       0.417000        1.0080           0
     30135 WT2      1875     TIP3     H2       HT       0.417000        1.0080           0
     30136 WT2      1876     TIP3     OH2      OT      -0.834000       15.9994           0
     30137 WT2      1876     TIP3     H1       HT       0.417000        1.0080           0
     30138 WT2      1876     TIP3     H2       HT       0.417000        1.0080           0
     30139 WT2      1877     TIP3     OH2      OT      -0.834000       15.9994           0
     30140 WT2      1877     TIP3     H1       HT       0.417000        1.0080           0
     30141 WT2      1877     TIP3     H2       HT       0.417000        1.0080           0
     30142 WT2      1878     TIP3     OH2      OT      -0.834000       15.9994           0
     30143 WT2      1878     TIP3     H1       HT       0.417000        1.0080           0
     30144 WT2      1878     TIP3     H2       HT       0.417000        1.0080           0
     30145 WT2      1881     TIP3     OH2      OT      -0.834000       15.9994           0
     30146 WT2      1881     TIP3     H1       HT       0.417000        1.0080           0
     30147 WT2      1881     TIP3     H2       HT       0.417000        1.0080           0
     30148 WT2      1885     TIP3     OH2      OT      -0.834000       15.9994           0
     30149 WT2      1885     TIP3     H1       HT       0.417000        1.0080           0
     30150 WT2      1885     TIP3     H2       HT       0.417000        1.0080           0
     30151 WT2      1891     TIP3     OH2      OT      -0.834000       15.9994           0
     30152 WT2      1891     TIP3     H1       HT       0.417000        1.0080           0
     30153 WT2      1891     TIP3     H2       HT       0.417000        1.0080           0
     30154 WT2      1892     TIP3     OH2      OT      -0.834000       15.9994           0
     30155 WT2      1892     TIP3     H1       HT       0.417000        1.0080           0
     30156 WT2      1892     TIP3     H2       HT       0.417000        1.0080           0
     30157 WT2      1894     TIP3     OH2      OT      -0.834000       15.9994           0
     30158 WT2      1894     TIP3     H1       HT       0.417000        1.0080           0
     30159 WT2      1894     TIP3     H2       HT       0.417000        1.0080           0
     30160 WT2      1895     TIP3     OH2      OT      -0.834000       15.9994           0
     30161 WT2      1895     TIP3     H1       HT       0.417000        1.0080           0
     30162 WT2      1895     TIP3     H2       HT       0.417000        1.0080           0
     30163 WT2      1896     TIP3     OH2      OT      -0.834000       15.9994           0
     30164 WT2      1896     TIP3     H1       HT       0.417000        1.0080           0
     30165 WT2      1896     TIP3     H2       HT       0.417000        1.0080           0
     30166 WT2      1897     TIP3     OH2      OT      -0.834000       15.9994           0
     30167 WT2      1897     TIP3     H1       HT       0.417000        1.0080           0
     30168 WT2      1897     TIP3     H2       HT       0.417000        1.0080           0
     30169 WT2      1898     TIP3     OH2      OT      -0.834000       15.9994           0
     30170 WT2      1898     TIP3     H1       HT       0.417000        1.0080           0
     30171 WT2      1898     TIP3     H2       HT       0.417000        1.0080           0
     30172 WT2      1911     TIP3     OH2      OT      -0.834000       15.9994           0
     30173 WT2      1911     TIP3     H1       HT       0.417000        1.0080           0
     30174 WT2      1911     TIP3     H2       HT       0.417000        1.0080           0
     30175 WT2      1912     TIP3     OH2      OT      -0.834000       15.9994           0
     30176 WT2      1912     TIP3     H1       HT       0.417000        1.0080           0
     30177 WT2      1912     TIP3     H2       HT       0.417000        1.0080           0
     30178 WT2      1913     TIP3     OH2      OT      -0.834000       15.9994           0
     30179 WT2      1913     TIP3     H1       HT       0.417000        1.0080           0
     30180 WT2      1913     TIP3     H2       HT       0.417000        1.0080           0
     30181 WT2      1914     TIP3     OH2      OT      -0.834000       15.9994           0
     30182 WT2      1914     TIP3     H1       HT       0.417000        1.0080           0
     30183 WT2      1914     TIP3     H2       HT       0.417000        1.0080           0
     30184 WT2      1915     TIP3     OH2      OT      -0.834000       15.9994           0
     30185 WT2      1915     TIP3     H1       HT       0.417000        1.0080           0
     30186 WT2      1915     TIP3     H2       HT       0.417000        1.0080           0
     30187 WT2      1917     TIP3     OH2      OT      -0.834000       15.9994           0
     30188 WT2      1917     TIP3     H1       HT       0.417000        1.0080           0
     30189 WT2      1917     TIP3     H2       HT       0.417000        1.0080           0
     30190 WT2      1918     TIP3     OH2      OT      -0.834000       15.9994           0
     30191 WT2      1918     TIP3     H1       HT       0.417000        1.0080           0
     30192 WT2      1918     TIP3     H2       HT       0.417000        1.0080           0
     30193 WT2      1919     TIP3     OH2      OT      -0.834000       15.9994           0
     30194 WT2      1919     TIP3     H1       HT       0.417000        1.0080           0
     30195 WT2      1919     TIP3     H2       HT       0.417000        1.0080           0
     30196 WT2      1923     TIP3     OH2      OT      -0.834000       15.9994           0
     30197 WT2      1923     TIP3     H1       HT       0.417000        1.0080           0
     30198 WT2      1923     TIP3     H2       HT       0.417000        1.0080           0
     30199 WT2      1931     TIP3     OH2      OT      -0.834000       15.9994           0
     30200 WT2      1931     TIP3     H1       HT       0.417000        1.0080           0
     30201 WT2      1931     TIP3     H2       HT       0.417000        1.0080           0
     30202 WT2      1934     TIP3     OH2      OT      -0.834000       15.9994           0
     30203 WT2      1934     TIP3     H1       HT       0.417000        1.0080           0
     30204 WT2      1934     TIP3     H2       HT       0.417000        1.0080           0
     30205 WT2      1935     TIP3     OH2      OT      -0.834000       15.9994           0
     30206 WT2      1935     TIP3     H1       HT       0.417000        1.0080           0
     30207 WT2      1935     TIP3     H2       HT       0.417000        1.0080           0
     30208 WT2      1936     TIP3     OH2      OT      -0.834000       15.9994           0
     30209 WT2      1936     TIP3     H1       HT       0.417000        1.0080           0
     30210 WT2      1936     TIP3     H2       HT       0.417000        1.0080           0
     30211 WT2      1937     TIP3     OH2      OT      -0.834000       15.9994           0
     30212 WT2      1937     TIP3     H1       HT       0.417000        1.0080           0
     30213 WT2      1937     TIP3     H2       HT       0.417000        1.0080           0
     30214 WT2      1938     TIP3     OH2      OT      -0.834000       15.9994           0
     30215 WT2      1938     TIP3     H1       HT       0.417000        1.0080           0
     30216 WT2      1938     TIP3     H2       HT       0.417000        1.0080           0
     30217 WT2      1939     TIP3     OH2      OT      -0.834000       15.9994           0
     30218 WT2      1939     TIP3     H1       HT       0.417000        1.0080           0
     30219 WT2      1939     TIP3     H2       HT       0.417000        1.0080           0
     30220 WT2      1950     TIP3     OH2      OT      -0.834000       15.9994           0
     30221 WT2      1950     TIP3     H1       HT       0.417000        1.0080           0
     30222 WT2      1950     TIP3     H2       HT       0.417000        1.0080           0
     30223 WT2      1952     TIP3     OH2      OT      -0.834000       15.9994           0
     30224 WT2      1952     TIP3     H1       HT       0.417000        1.0080           0
     30225 WT2      1952     TIP3     H2       HT       0.417000        1.0080           0
     30226 WT2      1953     TIP3     OH2      OT      -0.834000       15.9994           0
     30227 WT2      1953     TIP3     H1       HT       0.417000        1.0080           0
     30228 WT2      1953     TIP3     H2       HT       0.417000        1.0080           0
     30229 WT2      1954     TIP3     OH2      OT      -0.834000       15.9994           0
     30230 WT2      1954     TIP3     H1       HT       0.417000        1.0080           0
     30231 WT2      1954     TIP3     H2       HT       0.417000        1.0080           0
     30232 WT2      1955     TIP3     OH2      OT      -0.834000       15.9994           0
     30233 WT2      1955     TIP3     H1       HT       0.417000        1.0080           0
     30234 WT2      1955     TIP3     H2       HT       0.417000        1.0080           0
     30235 WT2      1959     TIP3     OH2      OT      -0.834000       15.9994           0
     30236 WT2      1959     TIP3     H1       HT       0.417000        1.0080           0
     30237 WT2      1959     TIP3     H2       HT       0.417000        1.0080           0
     30238 WT2      1961     TIP3     OH2      OT      -0.834000       15.9994           0
     30239 WT2      1961     TIP3     H1       HT       0.417000        1.0080           0
     30240 WT2      1961     TIP3     H2       HT       0.417000        1.0080           0
     30241 WT2      1976     TIP3     OH2      OT      -0.834000       15.9994           0
     30242 WT2      1976     TIP3     H1       HT       0.417000        1.0080           0
     30243 WT2      1976     TIP3     H2       HT       0.417000        1.0080           0
     30244 WT2      1977     TIP3     OH2      OT      -0.834000       15.9994           0
     30245 WT2      1977     TIP3     H1       HT       0.417000        1.0080           0
     30246 WT2      1977     TIP3     H2       HT       0.417000        1.0080           0
     30247 WT2      1978     TIP3     OH2      OT      -0.834000       15.9994           0
     30248 WT2      1978     TIP3     H1       HT       0.417000        1.0080           0
     30249 WT2      1978     TIP3     H2       HT       0.417000        1.0080           0
     30250 WT2      1979     TIP3     OH2      OT      -0.834000       15.9994           0
     30251 WT2      1979     TIP3     H1       HT       0.417000        1.0080           0
     30252 WT2      1979     TIP3     H2       HT       0.417000        1.0080           0
     30253 WT2      1983     TIP3     OH2      OT      -0.834000       15.9994           0
     30254 WT2      1983     TIP3     H1       HT       0.417000        1.0080           0
     30255 WT2      1983     TIP3     H2       HT       0.417000        1.0080           0
     30256 WT2      1993     TIP3     OH2      OT      -0.834000       15.9994           0
     30257 WT2      1993     TIP3     H1       HT       0.417000        1.0080           0
     30258 WT2      1993     TIP3     H2       HT       0.417000        1.0080           0
     30259 WT2      1998     TIP3     OH2      OT      -0.834000       15.9994           0
     30260 WT2      1998     TIP3     H1       HT       0.417000        1.0080           0
     30261 WT2      1998     TIP3     H2       HT       0.417000        1.0080           0
     30262 WT2      1999     TIP3     OH2      OT      -0.834000       15.9994           0
     30263 WT2      1999     TIP3     H1       HT       0.417000        1.0080           0
     30264 WT2      1999     TIP3     H2       HT       0.417000        1.0080           0
     30265 WT2      2000     TIP3     OH2      OT      -0.834000       15.9994           0
     30266 WT2      2000     TIP3     H1       HT       0.417000        1.0080           0
     30267 WT2      2000     TIP3     H2       HT       0.417000        1.0080           0
     30268 WT2      2001     TIP3     OH2      OT      -0.834000       15.9994           0
     30269 WT2      2001     TIP3     H1       HT       0.417000        1.0080           0
     30270 WT2      2001     TIP3     H2       HT       0.417000        1.0080           0
     30271 WT2      2002     TIP3     OH2      OT      -0.834000       15.9994           0
     30272 WT2      2002     TIP3     H1       HT       0.417000        1.0080           0
     30273 WT2      2002     TIP3     H2       HT       0.417000        1.0080           0
     30274 WT2      2004     TIP3     OH2      OT      -0.834000       15.9994           0
     30275 WT2      2004     TIP3     H1       HT       0.417000        1.0080           0
     30276 WT2      2004     TIP3     H2       HT       0.417000        1.0080           0
     30277 WT2      2014     TIP3     OH2      OT      -0.834000       15.9994           0
     30278 WT2      2014     TIP3     H1       HT       0.417000        1.0080           0
     30279 WT2      2014     TIP3     H2       HT       0.417000        1.0080           0
     30280 WT2      2016     TIP3     OH2      OT      -0.834000       15.9994           0
     30281 WT2      2016     TIP3     H1       HT       0.417000        1.0080           0
     30282 WT2      2016     TIP3     H2       HT       0.417000        1.0080           0
     30283 WT2      2018     TIP3     OH2      OT      -0.834000       15.9994           0
     30284 WT2      2018     TIP3     H1       HT       0.417000        1.0080           0
     30285 WT2      2018     TIP3     H2       HT       0.417000        1.0080           0
     30286 WT2      2019     TIP3     OH2      OT      -0.834000       15.9994           0
     30287 WT2      2019     TIP3     H1       HT       0.417000        1.0080           0
     30288 WT2      2019     TIP3     H2       HT       0.417000        1.0080           0
     30289 WT2      2021     TIP3     OH2      OT      -0.834000       15.9994           0
     30290 WT2      2021     TIP3     H1       HT       0.417000        1.0080           0
     30291 WT2      2021     TIP3     H2       HT       0.417000        1.0080           0
     30292 WT2      2022     TIP3     OH2      OT      -0.834000       15.9994           0
     30293 WT2      2022     TIP3     H1       HT       0.417000        1.0080           0
     30294 WT2      2022     TIP3     H2       HT       0.417000        1.0080           0
     30295 WT2      2023     TIP3     OH2      OT      -0.834000       15.9994           0
     30296 WT2      2023     TIP3     H1       HT       0.417000        1.0080           0
     30297 WT2      2023     TIP3     H2       HT       0.417000        1.0080           0
     30298 WT2      2024     TIP3     OH2      OT      -0.834000       15.9994           0
     30299 WT2      2024     TIP3     H1       HT       0.417000        1.0080           0
     30300 WT2      2024     TIP3     H2       HT       0.417000        1.0080           0
     30301 WT2      2025     TIP3     OH2      OT      -0.834000       15.9994           0
     30302 WT2      2025     TIP3     H1       HT       0.417000        1.0080           0
     30303 WT2      2025     TIP3     H2       HT       0.417000        1.0080           0
     30304 WT2      2034     TIP3     OH2      OT      -0.834000       15.9994           0
     30305 WT2      2034     TIP3     H1       HT       0.417000        1.0080           0
     30306 WT2      2034     TIP3     H2       HT       0.417000        1.0080           0
     30307 WT2      2037     TIP3     OH2      OT      -0.834000       15.9994           0
     30308 WT2      2037     TIP3     H1       HT       0.417000        1.0080           0
     30309 WT2      2037     TIP3     H2       HT       0.417000        1.0080           0
     30310 WT2      2038     TIP3     OH2      OT      -0.834000       15.9994           0
     30311 WT2      2038     TIP3     H1       HT       0.417000        1.0080           0
     30312 WT2      2038     TIP3     H2       HT       0.417000        1.0080           0
     30313 WT2      2039     TIP3     OH2      OT      -0.834000       15.9994           0
     30314 WT2      2039     TIP3     H1       HT       0.417000        1.0080           0
     30315 WT2      2039     TIP3     H2       HT       0.417000        1.0080           0
     30316 WT2      2040     TIP3     OH2      OT      -0.834000       15.9994           0
     30317 WT2      2040     TIP3     H1       HT       0.417000        1.0080           0
     30318 WT2      2040     TIP3     H2       HT       0.417000        1.0080           0
     30319 WT2      2042     TIP3     OH2      OT      -0.834000       15.9994           0
     30320 WT2      2042     TIP3     H1       HT       0.417000        1.0080           0
     30321 WT2      2042     TIP3     H2       HT       0.417000        1.0080           0
     30322 WT2      2043     TIP3     OH2      OT      -0.834000       15.9994           0
     30323 WT2      2043     TIP3     H1       HT       0.417000        1.0080           0
     30324 WT2      2043     TIP3     H2       HT       0.417000        1.0080           0
     30325 WT2      2044     TIP3     OH2      OT      -0.834000       15.9994           0
     30326 WT2      2044     TIP3     H1       HT       0.417000        1.0080           0
     30327 WT2      2044     TIP3     H2       HT       0.417000        1.0080           0
     30328 WT2      2046     TIP3     OH2      OT      -0.834000       15.9994           0
     30329 WT2      2046     TIP3     H1       HT       0.417000        1.0080           0
     30330 WT2      2046     TIP3     H2       HT       0.417000        1.0080           0
     30331 WT2      2059     TIP3     OH2      OT      -0.834000       15.9994           0
     30332 WT2      2059     TIP3     H1       HT       0.417000        1.0080           0
     30333 WT2      2059     TIP3     H2       HT       0.417000        1.0080           0
     30334 WT2      2060     TIP3     OH2      OT      -0.834000       15.9994           0
     30335 WT2      2060     TIP3     H1       HT       0.417000        1.0080           0
     30336 WT2      2060     TIP3     H2       HT       0.417000        1.0080           0
     30337 WT2      2061     TIP3     OH2      OT      -0.834000       15.9994           0
     30338 WT2      2061     TIP3     H1       HT       0.417000        1.0080           0
     30339 WT2      2061     TIP3     H2       HT       0.417000        1.0080           0
     30340 WT2      2062     TIP3     OH2      OT      -0.834000       15.9994           0
     30341 WT2      2062     TIP3     H1       HT       0.417000        1.0080           0
     30342 WT2      2062     TIP3     H2       HT       0.417000        1.0080           0
     30343 WT2      2063     TIP3     OH2      OT      -0.834000       15.9994           0
     30344 WT2      2063     TIP3     H1       HT       0.417000        1.0080           0
     30345 WT2      2063     TIP3     H2       HT       0.417000        1.0080           0
     30346 WT2      2064     TIP3     OH2      OT      -0.834000       15.9994           0
     30347 WT2      2064     TIP3     H1       HT       0.417000        1.0080           0
     30348 WT2      2064     TIP3     H2       HT       0.417000        1.0080           0
     30349 WT2      2066     TIP3     OH2      OT      -0.834000       15.9994           0
     30350 WT2      2066     TIP3     H1       HT       0.417000        1.0080           0
     30351 WT2      2066     TIP3     H2       HT       0.417000        1.0080           0
     30352 WT2      2079     TIP3     OH2      OT      -0.834000       15.9994           0
     30353 WT2      2079     TIP3     H1       HT       0.417000        1.0080           0
     30354 WT2      2079     TIP3     H2       HT       0.417000        1.0080           0
     30355 WT2      2081     TIP3     OH2      OT      -0.834000       15.9994           0
     30356 WT2      2081     TIP3     H1       HT       0.417000        1.0080           0
     30357 WT2      2081     TIP3     H2       HT       0.417000        1.0080           0
     30358 WT2      2082     TIP3     OH2      OT      -0.834000       15.9994           0
     30359 WT2      2082     TIP3     H1       HT       0.417000        1.0080           0
     30360 WT2      2082     TIP3     H2       HT       0.417000        1.0080           0
     30361 WT2      2083     TIP3     OH2      OT      -0.834000       15.9994           0
     30362 WT2      2083     TIP3     H1       HT       0.417000        1.0080           0
     30363 WT2      2083     TIP3     H2       HT       0.417000        1.0080           0
     30364 WT2      2084     TIP3     OH2      OT      -0.834000       15.9994           0
     30365 WT2      2084     TIP3     H1       HT       0.417000        1.0080           0
     30366 WT2      2084     TIP3     H2       HT       0.417000        1.0080           0
     30367 WT2      2088     TIP3     OH2      OT      -0.834000       15.9994           0
     30368 WT2      2088     TIP3     H1       HT       0.417000        1.0080           0
     30369 WT2      2088     TIP3     H2       HT       0.417000        1.0080           0
     30370 WT2      2091     TIP3     OH2      OT      -0.834000       15.9994           0
     30371 WT2      2091     TIP3     H1       HT       0.417000        1.0080           0
     30372 WT2      2091     TIP3     H2       HT       0.417000        1.0080           0
     30373 WT2      2101     TIP3     OH2      OT      -0.834000       15.9994           0
     30374 WT2      2101     TIP3     H1       HT       0.417000        1.0080           0
     30375 WT2      2101     TIP3     H2       HT       0.417000        1.0080           0
     30376 WT2      2102     TIP3     OH2      OT      -0.834000       15.9994           0
     30377 WT2      2102     TIP3     H1       HT       0.417000        1.0080           0
     30378 WT2      2102     TIP3     H2       HT       0.417000        1.0080           0
     30379 WT2      2103     TIP3     OH2      OT      -0.834000       15.9994           0
     30380 WT2      2103     TIP3     H1       HT       0.417000        1.0080           0
     30381 WT2      2103     TIP3     H2       HT       0.417000        1.0080           0
     30382 WT2      2104     TIP3     OH2      OT      -0.834000       15.9994           0
     30383 WT2      2104     TIP3     H1       HT       0.417000        1.0080           0
     30384 WT2      2104     TIP3     H2       HT       0.417000        1.0080           0
     30385 WT2      2105     TIP3     OH2      OT      -0.834000       15.9994           0
     30386 WT2      2105     TIP3     H1       HT       0.417000        1.0080           0
     30387 WT2      2105     TIP3     H2       HT       0.417000        1.0080           0
     30388 WT2      2106     TIP3     OH2      OT      -0.834000       15.9994           0
     30389 WT2      2106     TIP3     H1       HT       0.417000        1.0080           0
     30390 WT2      2106     TIP3     H2       HT       0.417000        1.0080           0
     30391 WT2      2107     TIP3     OH2      OT      -0.834000       15.9994           0
     30392 WT2      2107     TIP3     H1       HT       0.417000        1.0080           0
     30393 WT2      2107     TIP3     H2       HT       0.417000        1.0080           0
     30394 WT2      2108     TIP3     OH2      OT      -0.834000       15.9994           0
     30395 WT2      2108     TIP3     H1       HT       0.417000        1.0080           0
     30396 WT2      2108     TIP3     H2       HT       0.417000        1.0080           0
     30397 WT2      2122     TIP3     OH2      OT      -0.834000       15.9994           0
     30398 WT2      2122     TIP3     H1       HT       0.417000        1.0080           0
     30399 WT2      2122     TIP3     H2       HT       0.417000        1.0080           0
     30400 WT2      2123     TIP3     OH2      OT      -0.834000       15.9994           0
     30401 WT2      2123     TIP3     H1       HT       0.417000        1.0080           0
     30402 WT2      2123     TIP3     H2       HT       0.417000        1.0080           0
     30403 WT2      2124     TIP3     OH2      OT      -0.834000       15.9994           0
     30404 WT2      2124     TIP3     H1       HT       0.417000        1.0080           0
     30405 WT2      2124     TIP3     H2       HT       0.417000        1.0080           0
     30406 WT2      2125     TIP3     OH2      OT      -0.834000       15.9994           0
     30407 WT2      2125     TIP3     H1       HT       0.417000        1.0080           0
     30408 WT2      2125     TIP3     H2       HT       0.417000        1.0080           0
     30409 WT2      2126     TIP3     OH2      OT      -0.834000       15.9994           0
     30410 WT2      2126     TIP3     H1       HT       0.417000        1.0080           0
     30411 WT2      2126     TIP3     H2       HT       0.417000        1.0080           0
     30412 WT2      2128     TIP3     OH2      OT      -0.834000       15.9994           0
     30413 WT2      2128     TIP3     H1       HT       0.417000        1.0080           0
     30414 WT2      2128     TIP3     H2       HT       0.417000        1.0080           0
     30415 WT2      2129     TIP3     OH2      OT      -0.834000       15.9994           0
     30416 WT2      2129     TIP3     H1       HT       0.417000        1.0080           0
     30417 WT2      2129     TIP3     H2       HT       0.417000        1.0080           0
     30418 WT2      2131     TIP3     OH2      OT      -0.834000       15.9994           0
     30419 WT2      2131     TIP3     H1       HT       0.417000        1.0080           0
     30420 WT2      2131     TIP3     H2       HT       0.417000        1.0080           0
     30421 WT2      2143     TIP3     OH2      OT      -0.834000       15.9994           0
     30422 WT2      2143     TIP3     H1       HT       0.417000        1.0080           0
     30423 WT2      2143     TIP3     H2       HT       0.417000        1.0080           0
     30424 WT2      2146     TIP3     OH2      OT      -0.834000       15.9994           0
     30425 WT2      2146     TIP3     H1       HT       0.417000        1.0080           0
     30426 WT2      2146     TIP3     H2       HT       0.417000        1.0080           0
     30427 WT2      2148     TIP3     OH2      OT      -0.834000       15.9994           0
     30428 WT2      2148     TIP3     H1       HT       0.417000        1.0080           0
     30429 WT2      2148     TIP3     H2       HT       0.417000        1.0080           0
     30430 WT2      2149     TIP3     OH2      OT      -0.834000       15.9994           0
     30431 WT2      2149     TIP3     H1       HT       0.417000        1.0080           0
     30432 WT2      2149     TIP3     H2       HT       0.417000        1.0080           0
     30433 WT2      2150     TIP3     OH2      OT      -0.834000       15.9994           0
     30434 WT2      2150     TIP3     H1       HT       0.417000        1.0080           0
     30435 WT2      2150     TIP3     H2       HT       0.417000        1.0080           0
     30436 WT2      2152     TIP3     OH2      OT      -0.834000       15.9994           0
     30437 WT2      2152     TIP3     H1       HT       0.417000        1.0080           0
     30438 WT2      2152     TIP3     H2       HT       0.417000        1.0080           0
     30439 WT2      2163     TIP3     OH2      OT      -0.834000       15.9994           0
     30440 WT2      2163     TIP3     H1       HT       0.417000        1.0080           0
     30441 WT2      2163     TIP3     H2       HT       0.417000        1.0080           0
     30442 WT2      2164     TIP3     OH2      OT      -0.834000       15.9994           0
     30443 WT2      2164     TIP3     H1       HT       0.417000        1.0080           0
     30444 WT2      2164     TIP3     H2       HT       0.417000        1.0080           0
     30445 WT2      2165     TIP3     OH2      OT      -0.834000       15.9994           0
     30446 WT2      2165     TIP3     H1       HT       0.417000        1.0080           0
     30447 WT2      2165     TIP3     H2       HT       0.417000        1.0080           0
     30448 WT2      2166     TIP3     OH2      OT      -0.834000       15.9994           0
     30449 WT2      2166     TIP3     H1       HT       0.417000        1.0080           0
     30450 WT2      2166     TIP3     H2       HT       0.417000        1.0080           0
     30451 WT2      2167     TIP3     OH2      OT      -0.834000       15.9994           0
     30452 WT2      2167     TIP3     H1       HT       0.417000        1.0080           0
     30453 WT2      2167     TIP3     H2       HT       0.417000        1.0080           0
     30454 WT2      2168     TIP3     OH2      OT      -0.834000       15.9994           0
     30455 WT2      2168     TIP3     H1       HT       0.417000        1.0080           0
     30456 WT2      2168     TIP3     H2       HT       0.417000        1.0080           0
     30457 WT2      2169     TIP3     OH2      OT      -0.834000       15.9994           0
     30458 WT2      2169     TIP3     H1       HT       0.417000        1.0080           0
     30459 WT2      2169     TIP3     H2       HT       0.417000        1.0080           0
     30460 WT2      2170     TIP3     OH2      OT      -0.834000       15.9994           0
     30461 WT2      2170     TIP3     H1       HT       0.417000        1.0080           0
     30462 WT2      2170     TIP3     H2       HT       0.417000        1.0080           0
     30463 WT2      2172     TIP3     OH2      OT      -0.834000       15.9994           0
     30464 WT2      2172     TIP3     H1       HT       0.417000        1.0080           0
     30465 WT2      2172     TIP3     H2       HT       0.417000        1.0080           0
     30466 WT2      2183     TIP3     OH2      OT      -0.834000       15.9994           0
     30467 WT2      2183     TIP3     H1       HT       0.417000        1.0080           0
     30468 WT2      2183     TIP3     H2       HT       0.417000        1.0080           0
     30469 WT2      2185     TIP3     OH2      OT      -0.834000       15.9994           0
     30470 WT2      2185     TIP3     H1       HT       0.417000        1.0080           0
     30471 WT2      2185     TIP3     H2       HT       0.417000        1.0080           0
     30472 WT2      2186     TIP3     OH2      OT      -0.834000       15.9994           0
     30473 WT2      2186     TIP3     H1       HT       0.417000        1.0080           0
     30474 WT2      2186     TIP3     H2       HT       0.417000        1.0080           0
     30475 WT2      2187     TIP3     OH2      OT      -0.834000       15.9994           0
     30476 WT2      2187     TIP3     H1       HT       0.417000        1.0080           0
     30477 WT2      2187     TIP3     H2       HT       0.417000        1.0080           0
     30478 WT2      2188     TIP3     OH2      OT      -0.834000       15.9994           0
     30479 WT2      2188     TIP3     H1       HT       0.417000        1.0080           0
     30480 WT2      2188     TIP3     H2       HT       0.417000        1.0080           0
     30481 WT2      2189     TIP3     OH2      OT      -0.834000       15.9994           0
     30482 WT2      2189     TIP3     H1       HT       0.417000        1.0080           0
     30483 WT2      2189     TIP3     H2       HT       0.417000        1.0080           0
     30484 WT2      2190     TIP3     OH2      OT      -0.834000       15.9994           0
     30485 WT2      2190     TIP3     H1       HT       0.417000        1.0080           0
     30486 WT2      2190     TIP3     H2       HT       0.417000        1.0080           0
     30487 WT2      2191     TIP3     OH2      OT      -0.834000       15.9994           0
     30488 WT2      2191     TIP3     H1       HT       0.417000        1.0080           0
     30489 WT2      2191     TIP3     H2       HT       0.417000        1.0080           0
     30490 WT2      2192     TIP3     OH2      OT      -0.834000       15.9994           0
     30491 WT2      2192     TIP3     H1       HT       0.417000        1.0080           0
     30492 WT2      2192     TIP3     H2       HT       0.417000        1.0080           0
     30493 WT2      2193     TIP3     OH2      OT      -0.834000       15.9994           0
     30494 WT2      2193     TIP3     H1       HT       0.417000        1.0080           0
     30495 WT2      2193     TIP3     H2       HT       0.417000        1.0080           0
     30496 WT2      2205     TIP3     OH2      OT      -0.834000       15.9994           0
     30497 WT2      2205     TIP3     H1       HT       0.417000        1.0080           0
     30498 WT2      2205     TIP3     H2       HT       0.417000        1.0080           0
     30499 WT2      2206     TIP3     OH2      OT      -0.834000       15.9994           0
     30500 WT2      2206     TIP3     H1       HT       0.417000        1.0080           0
     30501 WT2      2206     TIP3     H2       HT       0.417000        1.0080           0
     30502 WT2      2207     TIP3     OH2      OT      -0.834000       15.9994           0
     30503 WT2      2207     TIP3     H1       HT       0.417000        1.0080           0
     30504 WT2      2207     TIP3     H2       HT       0.417000        1.0080           0
     30505 WT2      2208     TIP3     OH2      OT      -0.834000       15.9994           0
     30506 WT2      2208     TIP3     H1       HT       0.417000        1.0080           0
     30507 WT2      2208     TIP3     H2       HT       0.417000        1.0080           0
     30508 WT2      2209     TIP3     OH2      OT      -0.834000       15.9994           0
     30509 WT2      2209     TIP3     H1       HT       0.417000        1.0080           0
     30510 WT2      2209     TIP3     H2       HT       0.417000        1.0080           0
     30511 WT2      2210     TIP3     OH2      OT      -0.834000       15.9994           0
     30512 WT2      2210     TIP3     H1       HT       0.417000        1.0080           0
     30513 WT2      2210     TIP3     H2       HT       0.417000        1.0080           0
     30514 WT2      2214     TIP3     OH2      OT      -0.834000       15.9994           0
     30515 WT2      2214     TIP3     H1       HT       0.417000        1.0080           0
     30516 WT2      2214     TIP3     H2       HT       0.417000        1.0080           0
     30517 WT2      2223     TIP3     OH2      OT      -0.834000       15.9994           0
     30518 WT2      2223     TIP3     H1       HT       0.417000        1.0080           0
     30519 WT2      2223     TIP3     H2       HT       0.417000        1.0080           0
     30520 WT2      2227     TIP3     OH2      OT      -0.834000       15.9994           0
     30521 WT2      2227     TIP3     H1       HT       0.417000        1.0080           0
     30522 WT2      2227     TIP3     H2       HT       0.417000        1.0080           0
     30523 WT2      2228     TIP3     OH2      OT      -0.834000       15.9994           0
     30524 WT2      2228     TIP3     H1       HT       0.417000        1.0080           0
     30525 WT2      2228     TIP3     H2       HT       0.417000        1.0080           0
     30526 WT2      2229     TIP3     OH2      OT      -0.834000       15.9994           0
     30527 WT2      2229     TIP3     H1       HT       0.417000        1.0080           0
     30528 WT2      2229     TIP3     H2       HT       0.417000        1.0080           0
     30529 WT2      2230     TIP3     OH2      OT      -0.834000       15.9994           0
     30530 WT2      2230     TIP3     H1       HT       0.417000        1.0080           0
     30531 WT2      2230     TIP3     H2       HT       0.417000        1.0080           0
     30532 WT2      2231     TIP3     OH2      OT      -0.834000       15.9994           0
     30533 WT2      2231     TIP3     H1       HT       0.417000        1.0080           0
     30534 WT2      2231     TIP3     H2       HT       0.417000        1.0080           0
     30535 WT2      2232     TIP3     OH2      OT      -0.834000       15.9994           0
     30536 WT2      2232     TIP3     H1       HT       0.417000        1.0080           0
     30537 WT2      2232     TIP3     H2       HT       0.417000        1.0080           0
     30538 WT2      2233     TIP3     OH2      OT      -0.834000       15.9994           0
     30539 WT2      2233     TIP3     H1       HT       0.417000        1.0080           0
     30540 WT2      2233     TIP3     H2       HT       0.417000        1.0080           0
     30541 WT2      2244     TIP3     OH2      OT      -0.834000       15.9994           0
     30542 WT2      2244     TIP3     H1       HT       0.417000        1.0080           0
     30543 WT2      2244     TIP3     H2       HT       0.417000        1.0080           0
     30544 WT2      2250     TIP3     OH2      OT      -0.834000       15.9994           0
     30545 WT2      2250     TIP3     H1       HT       0.417000        1.0080           0
     30546 WT2      2250     TIP3     H2       HT       0.417000        1.0080           0
     30547 WT2      2251     TIP3     OH2      OT      -0.834000       15.9994           0
     30548 WT2      2251     TIP3     H1       HT       0.417000        1.0080           0
     30549 WT2      2251     TIP3     H2       HT       0.417000        1.0080           0
     30550 WT2      2252     TIP3     OH2      OT      -0.834000       15.9994           0
     30551 WT2      2252     TIP3     H1       HT       0.417000        1.0080           0
     30552 WT2      2252     TIP3     H2       HT       0.417000        1.0080           0
     30553 WT2      2253     TIP3     OH2      OT      -0.834000       15.9994           0
     30554 WT2      2253     TIP3     H1       HT       0.417000        1.0080           0
     30555 WT2      2253     TIP3     H2       HT       0.417000        1.0080           0
     30556 WT2      2254     TIP3     OH2      OT      -0.834000       15.9994           0
     30557 WT2      2254     TIP3     H1       HT       0.417000        1.0080           0
     30558 WT2      2254     TIP3     H2       HT       0.417000        1.0080           0
     30559 WT2      2255     TIP3     OH2      OT      -0.834000       15.9994           0
     30560 WT2      2255     TIP3     H1       HT       0.417000        1.0080           0
     30561 WT2      2255     TIP3     H2       HT       0.417000        1.0080           0
     30562 WT2      2269     TIP3     OH2      OT      -0.834000       15.9994           0
     30563 WT2      2269     TIP3     H1       HT       0.417000        1.0080           0
     30564 WT2      2269     TIP3     H2       HT       0.417000        1.0080           0
     30565 WT2      2270     TIP3     OH2      OT      -0.834000       15.9994           0
     30566 WT2      2270     TIP3     H1       HT       0.417000        1.0080           0
     30567 WT2      2270     TIP3     H2       HT       0.417000        1.0080           0
     30568 WT2      2271     TIP3     OH2      OT      -0.834000       15.9994           0
     30569 WT2      2271     TIP3     H1       HT       0.417000        1.0080           0
     30570 WT2      2271     TIP3     H2       HT       0.417000        1.0080           0
     30571 WT2      2272     TIP3     OH2      OT      -0.834000       15.9994           0
     30572 WT2      2272     TIP3     H1       HT       0.417000        1.0080           0
     30573 WT2      2272     TIP3     H2       HT       0.417000        1.0080           0
     30574 WT2      2273     TIP3     OH2      OT      -0.834000       15.9994           0
     30575 WT2      2273     TIP3     H1       HT       0.417000        1.0080           0
     30576 WT2      2273     TIP3     H2       HT       0.417000        1.0080           0
     30577 WT2      2274     TIP3     OH2      OT      -0.834000       15.9994           0
     30578 WT2      2274     TIP3     H1       HT       0.417000        1.0080           0
     30579 WT2      2274     TIP3     H2       HT       0.417000        1.0080           0
     30580 WT2      2275     TIP3     OH2      OT      -0.834000       15.9994           0
     30581 WT2      2275     TIP3     H1       HT       0.417000        1.0080           0
     30582 WT2      2275     TIP3     H2       HT       0.417000        1.0080           0
     30583 WT2      2276     TIP3     OH2      OT      -0.834000       15.9994           0
     30584 WT2      2276     TIP3     H1       HT       0.417000        1.0080           0
     30585 WT2      2276     TIP3     H2       HT       0.417000        1.0080           0
     30586 WT2      2277     TIP3     OH2      OT      -0.834000       15.9994           0
     30587 WT2      2277     TIP3     H1       HT       0.417000        1.0080           0
     30588 WT2      2277     TIP3     H2       HT       0.417000        1.0080           0
     30589 WT2      2280     TIP3     OH2      OT      -0.834000       15.9994           0
     30590 WT2      2280     TIP3     H1       HT       0.417000        1.0080           0
     30591 WT2      2280     TIP3     H2       HT       0.417000        1.0080           0
     30592 WT2      2288     TIP3     OH2      OT      -0.834000       15.9994           0
     30593 WT2      2288     TIP3     H1       HT       0.417000        1.0080           0
     30594 WT2      2288     TIP3     H2       HT       0.417000        1.0080           0
     30595 WT2      2290     TIP3     OH2      OT      -0.834000       15.9994           0
     30596 WT2      2290     TIP3     H1       HT       0.417000        1.0080           0
     30597 WT2      2290     TIP3     H2       HT       0.417000        1.0080           0
     30598 WT2      2292     TIP3     OH2      OT      -0.834000       15.9994           0
     30599 WT2      2292     TIP3     H1       HT       0.417000        1.0080           0
     30600 WT2      2292     TIP3     H2       HT       0.417000        1.0080           0
     30601 WT2      2293     TIP3     OH2      OT      -0.834000       15.9994           0
     30602 WT2      2293     TIP3     H1       HT       0.417000        1.0080           0
     30603 WT2      2293     TIP3     H2       HT       0.417000        1.0080           0
     30604 WT2      2294     TIP3     OH2      OT      -0.834000       15.9994           0
     30605 WT2      2294     TIP3     H1       HT       0.417000        1.0080           0
     30606 WT2      2294     TIP3     H2       HT       0.417000        1.0080           0
     30607 WT2      2295     TIP3     OH2      OT      -0.834000       15.9994           0
     30608 WT2      2295     TIP3     H1       HT       0.417000        1.0080           0
     30609 WT2      2295     TIP3     H2       HT       0.417000        1.0080           0
     30610 WT2      2296     TIP3     OH2      OT      -0.834000       15.9994           0
     30611 WT2      2296     TIP3     H1       HT       0.417000        1.0080           0
     30612 WT2      2296     TIP3     H2       HT       0.417000        1.0080           0
     30613 WT2      2302     TIP3     OH2      OT      -0.834000       15.9994           0
     30614 WT2      2302     TIP3     H1       HT       0.417000        1.0080           0
     30615 WT2      2302     TIP3     H2       HT       0.417000        1.0080           0
     30616 WT2      2309     TIP3     OH2      OT      -0.834000       15.9994           0
     30617 WT2      2309     TIP3     H1       HT       0.417000        1.0080           0
     30618 WT2      2309     TIP3     H2       HT       0.417000        1.0080           0
     30619 WT2      2311     TIP3     OH2      OT      -0.834000       15.9994           0
     30620 WT2      2311     TIP3     H1       HT       0.417000        1.0080           0
     30621 WT2      2311     TIP3     H2       HT       0.417000        1.0080           0
     30622 WT2      2312     TIP3     OH2      OT      -0.834000       15.9994           0
     30623 WT2      2312     TIP3     H1       HT       0.417000        1.0080           0
     30624 WT2      2312     TIP3     H2       HT       0.417000        1.0080           0
     30625 WT2      2313     TIP3     OH2      OT      -0.834000       15.9994           0
     30626 WT2      2313     TIP3     H1       HT       0.417000        1.0080           0
     30627 WT2      2313     TIP3     H2       HT       0.417000        1.0080           0
     30628 WT2      2314     TIP3     OH2      OT      -0.834000       15.9994           0
     30629 WT2      2314     TIP3     H1       HT       0.417000        1.0080           0
     30630 WT2      2314     TIP3     H2       HT       0.417000        1.0080           0
     30631 WT2      2315     TIP3     OH2      OT      -0.834000       15.9994           0
     30632 WT2      2315     TIP3     H1       HT       0.417000        1.0080           0
     30633 WT2      2315     TIP3     H2       HT       0.417000        1.0080           0
     30634 WT2      2316     TIP3     OH2      OT      -0.834000       15.9994           0
     30635 WT2      2316     TIP3     H1       HT       0.417000        1.0080           0
     30636 WT2      2316     TIP3     H2       HT       0.417000        1.0080           0
     30637 WT2      2317     TIP3     OH2      OT      -0.834000       15.9994           0
     30638 WT2      2317     TIP3     H1       HT       0.417000        1.0080           0
     30639 WT2      2317     TIP3     H2       HT       0.417000        1.0080           0
     30640 WT2      2318     TIP3     OH2      OT      -0.834000       15.9994           0
     30641 WT2      2318     TIP3     H1       HT       0.417000        1.0080           0
     30642 WT2      2318     TIP3     H2       HT       0.417000        1.0080           0
     30643 WT2      2319     TIP3     OH2      OT      -0.834000       15.9994           0
     30644 WT2      2319     TIP3     H1       HT       0.417000        1.0080           0
     30645 WT2      2319     TIP3     H2       HT       0.417000        1.0080           0
     30646 WT2      2320     TIP3     OH2      OT      -0.834000       15.9994           0
     30647 WT2      2320     TIP3     H1       HT       0.417000        1.0080           0
     30648 WT2      2320     TIP3     H2       HT       0.417000        1.0080           0
     30649 WT2      2329     TIP3     OH2      OT      -0.834000       15.9994           0
     30650 WT2      2329     TIP3     H1       HT       0.417000        1.0080           0
     30651 WT2      2329     TIP3     H2       HT       0.417000        1.0080           0
     30652 WT2      2331     TIP3     OH2      OT      -0.834000       15.9994           0
     30653 WT2      2331     TIP3     H1       HT       0.417000        1.0080           0
     30654 WT2      2331     TIP3     H2       HT       0.417000        1.0080           0
     30655 WT2      2332     TIP3     OH2      OT      -0.834000       15.9994           0
     30656 WT2      2332     TIP3     H1       HT       0.417000        1.0080           0
     30657 WT2      2332     TIP3     H2       HT       0.417000        1.0080           0
     30658 WT2      2333     TIP3     OH2      OT      -0.834000       15.9994           0
     30659 WT2      2333     TIP3     H1       HT       0.417000        1.0080           0
     30660 WT2      2333     TIP3     H2       HT       0.417000        1.0080           0
     30661 WT2      2335     TIP3     OH2      OT      -0.834000       15.9994           0
     30662 WT2      2335     TIP3     H1       HT       0.417000        1.0080           0
     30663 WT2      2335     TIP3     H2       HT       0.417000        1.0080           0
     30664 WT2      2336     TIP3     OH2      OT      -0.834000       15.9994           0
     30665 WT2      2336     TIP3     H1       HT       0.417000        1.0080           0
     30666 WT2      2336     TIP3     H2       HT       0.417000        1.0080           0
     30667 WT2      2337     TIP3     OH2      OT      -0.834000       15.9994           0
     30668 WT2      2337     TIP3     H1       HT       0.417000        1.0080           0
     30669 WT2      2337     TIP3     H2       HT       0.417000        1.0080           0
     30670 WT2      2338     TIP3     OH2      OT      -0.834000       15.9994           0
     30671 WT2      2338     TIP3     H1       HT       0.417000        1.0080           0
     30672 WT2      2338     TIP3     H2       HT       0.417000        1.0080           0
     30673 WT2      2339     TIP3     OH2      OT      -0.834000       15.9994           0
     30674 WT2      2339     TIP3     H1       HT       0.417000        1.0080           0
     30675 WT2      2339     TIP3     H2       HT       0.417000        1.0080           0
     30676 WT2      2343     TIP3     OH2      OT      -0.834000       15.9994           0
     30677 WT2      2343     TIP3     H1       HT       0.417000        1.0080           0
     30678 WT2      2343     TIP3     H2       HT       0.417000        1.0080           0
     30679 WT2      2351     TIP3     OH2      OT      -0.834000       15.9994           0
     30680 WT2      2351     TIP3     H1       HT       0.417000        1.0080           0
     30681 WT2      2351     TIP3     H2       HT       0.417000        1.0080           0
     30682 WT2      2352     TIP3     OH2      OT      -0.834000       15.9994           0
     30683 WT2      2352     TIP3     H1       HT       0.417000        1.0080           0
     30684 WT2      2352     TIP3     H2       HT       0.417000        1.0080           0
     30685 WT2      2354     TIP3     OH2      OT      -0.834000       15.9994           0
     30686 WT2      2354     TIP3     H1       HT       0.417000        1.0080           0
     30687 WT2      2354     TIP3     H2       HT       0.417000        1.0080           0
     30688 WT2      2355     TIP3     OH2      OT      -0.834000       15.9994           0
     30689 WT2      2355     TIP3     H1       HT       0.417000        1.0080           0
     30690 WT2      2355     TIP3     H2       HT       0.417000        1.0080           0
     30691 WT2      2357     TIP3     OH2      OT      -0.834000       15.9994           0
     30692 WT2      2357     TIP3     H1       HT       0.417000        1.0080           0
     30693 WT2      2357     TIP3     H2       HT       0.417000        1.0080           0
     30694 WT2      2358     TIP3     OH2      OT      -0.834000       15.9994           0
     30695 WT2      2358     TIP3     H1       HT       0.417000        1.0080           0
     30696 WT2      2358     TIP3     H2       HT       0.417000        1.0080           0
     30697 WT2      2359     TIP3     OH2      OT      -0.834000       15.9994           0
     30698 WT2      2359     TIP3     H1       HT       0.417000        1.0080           0
     30699 WT2      2359     TIP3     H2       HT       0.417000        1.0080           0
     30700 WT2      2375     TIP3     OH2      OT      -0.834000       15.9994           0
     30701 WT2      2375     TIP3     H1       HT       0.417000        1.0080           0
     30702 WT2      2375     TIP3     H2       HT       0.417000        1.0080           0
     30703 WT2      2376     TIP3     OH2      OT      -0.834000       15.9994           0
     30704 WT2      2376     TIP3     H1       HT       0.417000        1.0080           0
     30705 WT2      2376     TIP3     H2       HT       0.417000        1.0080           0
     30706 WT2      2377     TIP3     OH2      OT      -0.834000       15.9994           0
     30707 WT2      2377     TIP3     H1       HT       0.417000        1.0080           0
     30708 WT2      2377     TIP3     H2       HT       0.417000        1.0080           0
     30709 WT2      2378     TIP3     OH2      OT      -0.834000       15.9994           0
     30710 WT2      2378     TIP3     H1       HT       0.417000        1.0080           0
     30711 WT2      2378     TIP3     H2       HT       0.417000        1.0080           0
     30712 WT2      2380     TIP3     OH2      OT      -0.834000       15.9994           0
     30713 WT2      2380     TIP3     H1       HT       0.417000        1.0080           0
     30714 WT2      2380     TIP3     H2       HT       0.417000        1.0080           0
     30715 WT2      2382     TIP3     OH2      OT      -0.834000       15.9994           0
     30716 WT2      2382     TIP3     H1       HT       0.417000        1.0080           0
     30717 WT2      2382     TIP3     H2       HT       0.417000        1.0080           0
     30718 WT2      2395     TIP3     OH2      OT      -0.834000       15.9994           0
     30719 WT2      2395     TIP3     H1       HT       0.417000        1.0080           0
     30720 WT2      2395     TIP3     H2       HT       0.417000        1.0080           0
     30721 WT2      2397     TIP3     OH2      OT      -0.834000       15.9994           0
     30722 WT2      2397     TIP3     H1       HT       0.417000        1.0080           0
     30723 WT2      2397     TIP3     H2       HT       0.417000        1.0080           0
     30724 WT2      2398     TIP3     OH2      OT      -0.834000       15.9994           0
     30725 WT2      2398     TIP3     H1       HT       0.417000        1.0080           0
     30726 WT2      2398     TIP3     H2       HT       0.417000        1.0080           0
     30727 WT2      2399     TIP3     OH2      OT      -0.834000       15.9994           0
     30728 WT2      2399     TIP3     H1       HT       0.417000        1.0080           0
     30729 WT2      2399     TIP3     H2       HT       0.417000        1.0080           0
     30730 WT2      2400     TIP3     OH2      OT      -0.834000       15.9994           0
     30731 WT2      2400     TIP3     H1       HT       0.417000        1.0080           0
     30732 WT2      2400     TIP3     H2       HT       0.417000        1.0080           0
     30733 WT2      2416     TIP3     OH2      OT      -0.834000       15.9994           0
     30734 WT2      2416     TIP3     H1       HT       0.417000        1.0080           0
     30735 WT2      2416     TIP3     H2       HT       0.417000        1.0080           0
     30736 WT2      2417     TIP3     OH2      OT      -0.834000       15.9994           0
     30737 WT2      2417     TIP3     H1       HT       0.417000        1.0080           0
     30738 WT2      2417     TIP3     H2       HT       0.417000        1.0080           0
     30739 WT2      2418     TIP3     OH2      OT      -0.834000       15.9994           0
     30740 WT2      2418     TIP3     H1       HT       0.417000        1.0080           0
     30741 WT2      2418     TIP3     H2       HT       0.417000        1.0080           0
     30742 WT2      2419     TIP3     OH2      OT      -0.834000       15.9994           0
     30743 WT2      2419     TIP3     H1       HT       0.417000        1.0080           0
     30744 WT2      2419     TIP3     H2       HT       0.417000        1.0080           0
     30745 WT2      2420     TIP3     OH2      OT      -0.834000       15.9994           0
     30746 WT2      2420     TIP3     H1       HT       0.417000        1.0080           0
     30747 WT2      2420     TIP3     H2       HT       0.417000        1.0080           0
     30748 WT2      2421     TIP3     OH2      OT      -0.834000       15.9994           0
     30749 WT2      2421     TIP3     H1       HT       0.417000        1.0080           0
     30750 WT2      2421     TIP3     H2       HT       0.417000        1.0080           0
     30751 WT2      2423     TIP3     OH2      OT      -0.834000       15.9994           0
     30752 WT2      2423     TIP3     H1       HT       0.417000        1.0080           0
     30753 WT2      2423     TIP3     H2       HT       0.417000        1.0080           0
     30754 WT2      2426     TIP3     OH2      OT      -0.834000       15.9994           0
     30755 WT2      2426     TIP3     H1       HT       0.417000        1.0080           0
     30756 WT2      2426     TIP3     H2       HT       0.417000        1.0080           0
     30757 WT2      2436     TIP3     OH2      OT      -0.834000       15.9994           0
     30758 WT2      2436     TIP3     H1       HT       0.417000        1.0080           0
     30759 WT2      2436     TIP3     H2       HT       0.417000        1.0080           0
     30760 WT2      2438     TIP3     OH2      OT      -0.834000       15.9994           0
     30761 WT2      2438     TIP3     H1       HT       0.417000        1.0080           0
     30762 WT2      2438     TIP3     H2       HT       0.417000        1.0080           0
     30763 WT2      2439     TIP3     OH2      OT      -0.834000       15.9994           0
     30764 WT2      2439     TIP3     H1       HT       0.417000        1.0080           0
     30765 WT2      2439     TIP3     H2       HT       0.417000        1.0080           0
     30766 WT2      2440     TIP3     OH2      OT      -0.834000       15.9994           0
     30767 WT2      2440     TIP3     H1       HT       0.417000        1.0080           0
     30768 WT2      2440     TIP3     H2       HT       0.417000        1.0080           0
     30769 WT2      2441     TIP3     OH2      OT      -0.834000       15.9994           0
     30770 WT2      2441     TIP3     H1       HT       0.417000        1.0080           0
     30771 WT2      2441     TIP3     H2       HT       0.417000        1.0080           0
     30772 WT2      2442     TIP3     OH2      OT      -0.834000       15.9994           0
     30773 WT2      2442     TIP3     H1       HT       0.417000        1.0080           0
     30774 WT2      2442     TIP3     H2       HT       0.417000        1.0080           0
     30775 WT2      2444     TIP3     OH2      OT      -0.834000       15.9994           0
     30776 WT2      2444     TIP3     H1       HT       0.417000        1.0080           0
     30777 WT2      2444     TIP3     H2       HT       0.417000        1.0080           0
     30778 WT2      2447     TIP3     OH2      OT      -0.834000       15.9994           0
     30779 WT2      2447     TIP3     H1       HT       0.417000        1.0080           0
     30780 WT2      2447     TIP3     H2       HT       0.417000        1.0080           0
     30781 WT2      2458     TIP3     OH2      OT      -0.834000       15.9994           0
     30782 WT2      2458     TIP3     H1       HT       0.417000        1.0080           0
     30783 WT2      2458     TIP3     H2       HT       0.417000        1.0080           0
     30784 WT2      2459     TIP3     OH2      OT      -0.834000       15.9994           0
     30785 WT2      2459     TIP3     H1       HT       0.417000        1.0080           0
     30786 WT2      2459     TIP3     H2       HT       0.417000        1.0080           0
     30787 WT2      2460     TIP3     OH2      OT      -0.834000       15.9994           0
     30788 WT2      2460     TIP3     H1       HT       0.417000        1.0080           0
     30789 WT2      2460     TIP3     H2       HT       0.417000        1.0080           0
     30790 WT2      2461     TIP3     OH2      OT      -0.834000       15.9994           0
     30791 WT2      2461     TIP3     H1       HT       0.417000        1.0080           0
     30792 WT2      2461     TIP3     H2       HT       0.417000        1.0080           0
     30793 WT2      2462     TIP3     OH2      OT      -0.834000       15.9994           0
     30794 WT2      2462     TIP3     H1       HT       0.417000        1.0080           0
     30795 WT2      2462     TIP3     H2       HT       0.417000        1.0080           0
     30796 WT2      2463     TIP3     OH2      OT      -0.834000       15.9994           0
     30797 WT2      2463     TIP3     H1       HT       0.417000        1.0080           0
     30798 WT2      2463     TIP3     H2       HT       0.417000        1.0080           0
     30799 WT2      2465     TIP3     OH2      OT      -0.834000       15.9994           0
     30800 WT2      2465     TIP3     H1       HT       0.417000        1.0080           0
     30801 WT2      2465     TIP3     H2       HT       0.417000        1.0080           0
     30802 WT2      2477     TIP3     OH2      OT      -0.834000       15.9994           0
     30803 WT2      2477     TIP3     H1       HT       0.417000        1.0080           0
     30804 WT2      2477     TIP3     H2       HT       0.417000        1.0080           0
     30805 WT2      2479     TIP3     OH2      OT      -0.834000       15.9994           0
     30806 WT2      2479     TIP3     H1       HT       0.417000        1.0080           0
     30807 WT2      2479     TIP3     H2       HT       0.417000        1.0080           0
     30808 WT2      2480     TIP3     OH2      OT      -0.834000       15.9994           0
     30809 WT2      2480     TIP3     H1       HT       0.417000        1.0080           0
     30810 WT2      2480     TIP3     H2       HT       0.417000        1.0080           0
     30811 WT2      2482     TIP3     OH2      OT      -0.834000       15.9994           0
     30812 WT2      2482     TIP3     H1       HT       0.417000        1.0080           0
     30813 WT2      2482     TIP3     H2       HT       0.417000        1.0080           0
     30814 WT2      2483     TIP3     OH2      OT      -0.834000       15.9994           0
     30815 WT2      2483     TIP3     H1       HT       0.417000        1.0080           0
     30816 WT2      2483     TIP3     H2       HT       0.417000        1.0080           0
     30817 WT2      2484     TIP3     OH2      OT      -0.834000       15.9994           0
     30818 WT2      2484     TIP3     H1       HT       0.417000        1.0080           0
     30819 WT2      2484     TIP3     H2       HT       0.417000        1.0080           0
     30820 WT2      2499     TIP3     OH2      OT      -0.834000       15.9994           0
     30821 WT2      2499     TIP3     H1       HT       0.417000        1.0080           0
     30822 WT2      2499     TIP3     H2       HT       0.417000        1.0080           0
     30823 WT2      2500     TIP3     OH2      OT      -0.834000       15.9994           0
     30824 WT2      2500     TIP3     H1       HT       0.417000        1.0080           0
     30825 WT2      2500     TIP3     H2       HT       0.417000        1.0080           0
     30826 WT2      2501     TIP3     OH2      OT      -0.834000       15.9994           0
     30827 WT2      2501     TIP3     H1       HT       0.417000        1.0080           0
     30828 WT2      2501     TIP3     H2       HT       0.417000        1.0080           0
     30829 WT2      2503     TIP3     OH2      OT      -0.834000       15.9994           0
     30830 WT2      2503     TIP3     H1       HT       0.417000        1.0080           0
     30831 WT2      2503     TIP3     H2       HT       0.417000        1.0080           0
     30832 WT2      2505     TIP3     OH2      OT      -0.834000       15.9994           0
     30833 WT2      2505     TIP3     H1       HT       0.417000        1.0080           0
     30834 WT2      2505     TIP3     H2       HT       0.417000        1.0080           0
     30835 WT2      2508     TIP3     OH2      OT      -0.834000       15.9994           0
     30836 WT2      2508     TIP3     H1       HT       0.417000        1.0080           0
     30837 WT2      2508     TIP3     H2       HT       0.417000        1.0080           0
     30838 WT2      2519     TIP3     OH2      OT      -0.834000       15.9994           0
     30839 WT2      2519     TIP3     H1       HT       0.417000        1.0080           0
     30840 WT2      2519     TIP3     H2       HT       0.417000        1.0080           0
     30841 WT2      2521     TIP3     OH2      OT      -0.834000       15.9994           0
     30842 WT2      2521     TIP3     H1       HT       0.417000        1.0080           0
     30843 WT2      2521     TIP3     H2       HT       0.417000        1.0080           0
     30844 WT2      2522     TIP3     OH2      OT      -0.834000       15.9994           0
     30845 WT2      2522     TIP3     H1       HT       0.417000        1.0080           0
     30846 WT2      2522     TIP3     H2       HT       0.417000        1.0080           0
     30847 WT2      2523     TIP3     OH2      OT      -0.834000       15.9994           0
     30848 WT2      2523     TIP3     H1       HT       0.417000        1.0080           0
     30849 WT2      2523     TIP3     H2       HT       0.417000        1.0080           0
     30850 WT2      2525     TIP3     OH2      OT      -0.834000       15.9994           0
     30851 WT2      2525     TIP3     H1       HT       0.417000        1.0080           0
     30852 WT2      2525     TIP3     H2       HT       0.417000        1.0080           0
     30853 WT2      2526     TIP3     OH2      OT      -0.834000       15.9994           0
     30854 WT2      2526     TIP3     H1       HT       0.417000        1.0080           0
     30855 WT2      2526     TIP3     H2       HT       0.417000        1.0080           0
     30856 WT2      2527     TIP3     OH2      OT      -0.834000       15.9994           0
     30857 WT2      2527     TIP3     H1       HT       0.417000        1.0080           0
     30858 WT2      2527     TIP3     H2       HT       0.417000        1.0080           0
     30859 WT2      2528     TIP3     OH2      OT      -0.834000       15.9994           0
     30860 WT2      2528     TIP3     H1       HT       0.417000        1.0080           0
     30861 WT2      2528     TIP3     H2       HT       0.417000        1.0080           0
     30862 WT2      2529     TIP3     OH2      OT      -0.834000       15.9994           0
     30863 WT2      2529     TIP3     H1       HT       0.417000        1.0080           0
     30864 WT2      2529     TIP3     H2       HT       0.417000        1.0080           0
     30865 WT2      2539     TIP3     OH2      OT      -0.834000       15.9994           0
     30866 WT2      2539     TIP3     H1       HT       0.417000        1.0080           0
     30867 WT2      2539     TIP3     H2       HT       0.417000        1.0080           0
     30868 WT2      2540     TIP3     OH2      OT      -0.834000       15.9994           0
     30869 WT2      2540     TIP3     H1       HT       0.417000        1.0080           0
     30870 WT2      2540     TIP3     H2       HT       0.417000        1.0080           0
     30871 WT2      2541     TIP3     OH2      OT      -0.834000       15.9994           0
     30872 WT2      2541     TIP3     H1       HT       0.417000        1.0080           0
     30873 WT2      2541     TIP3     H2       HT       0.417000        1.0080           0
     30874 WT2      2544     TIP3     OH2      OT      -0.834000       15.9994           0
     30875 WT2      2544     TIP3     H1       HT       0.417000        1.0080           0
     30876 WT2      2544     TIP3     H2       HT       0.417000        1.0080           0
     30877 WT2      2545     TIP3     OH2      OT      -0.834000       15.9994           0
     30878 WT2      2545     TIP3     H1       HT       0.417000        1.0080           0
     30879 WT2      2545     TIP3     H2       HT       0.417000        1.0080           0
     30880 WT2      2547     TIP3     OH2      OT      -0.834000       15.9994           0
     30881 WT2      2547     TIP3     H1       HT       0.417000        1.0080           0
     30882 WT2      2547     TIP3     H2       HT       0.417000        1.0080           0
     30883 WT2      2548     TIP3     OH2      OT      -0.834000       15.9994           0
     30884 WT2      2548     TIP3     H1       HT       0.417000        1.0080           0
     30885 WT2      2548     TIP3     H2       HT       0.417000        1.0080           0
     30886 WT2      2562     TIP3     OH2      OT      -0.834000       15.9994           0
     30887 WT2      2562     TIP3     H1       HT       0.417000        1.0080           0
     30888 WT2      2562     TIP3     H2       HT       0.417000        1.0080           0
     30889 WT2      2563     TIP3     OH2      OT      -0.834000       15.9994           0
     30890 WT2      2563     TIP3     H1       HT       0.417000        1.0080           0
     30891 WT2      2563     TIP3     H2       HT       0.417000        1.0080           0
     30892 WT2      2564     TIP3     OH2      OT      -0.834000       15.9994           0
     30893 WT2      2564     TIP3     H1       HT       0.417000        1.0080           0
     30894 WT2      2564     TIP3     H2       HT       0.417000        1.0080           0
     30895 WT2      2565     TIP3     OH2      OT      -0.834000       15.9994           0
     30896 WT2      2565     TIP3     H1       HT       0.417000        1.0080           0
     30897 WT2      2565     TIP3     H2       HT       0.417000        1.0080           0
     30898 WT2      2566     TIP3     OH2      OT      -0.834000       15.9994           0
     30899 WT2      2566     TIP3     H1       HT       0.417000        1.0080           0
     30900 WT2      2566     TIP3     H2       HT       0.417000        1.0080           0
     30901 WT2      2567     TIP3     OH2      OT      -0.834000       15.9994           0
     30902 WT2      2567     TIP3     H1       HT       0.417000        1.0080           0
     30903 WT2      2567     TIP3     H2       HT       0.417000        1.0080           0
     30904 WT2      2569     TIP3     OH2      OT      -0.834000       15.9994           0
     30905 WT2      2569     TIP3     H1       HT       0.417000        1.0080           0
     30906 WT2      2569     TIP3     H2       HT       0.417000        1.0080           0
     30907 WT2      2570     TIP3     OH2      OT      -0.834000       15.9994           0
     30908 WT2      2570     TIP3     H1       HT       0.417000        1.0080           0
     30909 WT2      2570     TIP3     H2       HT       0.417000        1.0080           0
     30910 WT2      2573     TIP3     OH2      OT      -0.834000       15.9994           0
     30911 WT2      2573     TIP3     H1       HT       0.417000        1.0080           0
     30912 WT2      2573     TIP3     H2       HT       0.417000        1.0080           0
     30913 WT2      2580     TIP3     OH2      OT      -0.834000       15.9994           0
     30914 WT2      2580     TIP3     H1       HT       0.417000        1.0080           0
     30915 WT2      2580     TIP3     H2       HT       0.417000        1.0080           0
     30916 WT2      2582     TIP3     OH2      OT      -0.834000       15.9994           0
     30917 WT2      2582     TIP3     H1       HT       0.417000        1.0080           0
     30918 WT2      2582     TIP3     H2       HT       0.417000        1.0080           0
     30919 WT2      2584     TIP3     OH2      OT      -0.834000       15.9994           0
     30920 WT2      2584     TIP3     H1       HT       0.417000        1.0080           0
     30921 WT2      2584     TIP3     H2       HT       0.417000        1.0080           0
     30922 WT2      2587     TIP3     OH2      OT      -0.834000       15.9994           0
     30923 WT2      2587     TIP3     H1       HT       0.417000        1.0080           0
     30924 WT2      2587     TIP3     H2       HT       0.417000        1.0080           0
     30925 WT2      2588     TIP3     OH2      OT      -0.834000       15.9994           0
     30926 WT2      2588     TIP3     H1       HT       0.417000        1.0080           0
     30927 WT2      2588     TIP3     H2       HT       0.417000        1.0080           0
     30928 WT2      2589     TIP3     OH2      OT      -0.834000       15.9994           0
     30929 WT2      2589     TIP3     H1       HT       0.417000        1.0080           0
     30930 WT2      2589     TIP3     H2       HT       0.417000        1.0080           0
     30931 WT2      2606     TIP3     OH2      OT      -0.834000       15.9994           0
     30932 WT2      2606     TIP3     H1       HT       0.417000        1.0080           0
     30933 WT2      2606     TIP3     H2       HT       0.417000        1.0080           0
     30934 WT2      2607     TIP3     OH2      OT      -0.834000       15.9994           0
     30935 WT2      2607     TIP3     H1       HT       0.417000        1.0080           0
     30936 WT2      2607     TIP3     H2       HT       0.417000        1.0080           0
     30937 WT2      2608     TIP3     OH2      OT      -0.834000       15.9994           0
     30938 WT2      2608     TIP3     H1       HT       0.417000        1.0080           0
     30939 WT2      2608     TIP3     H2       HT       0.417000        1.0080           0
     30940 WT2      2609     TIP3     OH2      OT      -0.834000       15.9994           0
     30941 WT2      2609     TIP3     H1       HT       0.417000        1.0080           0
     30942 WT2      2609     TIP3     H2       HT       0.417000        1.0080           0
     30943 WT2      2610     TIP3     OH2      OT      -0.834000       15.9994           0
     30944 WT2      2610     TIP3     H1       HT       0.417000        1.0080           0
     30945 WT2      2610     TIP3     H2       HT       0.417000        1.0080           0
     30946 WT2      2612     TIP3     OH2      OT      -0.834000       15.9994           0
     30947 WT2      2612     TIP3     H1       HT       0.417000        1.0080           0
     30948 WT2      2612     TIP3     H2       HT       0.417000        1.0080           0
     30949 WT2      2628     TIP3     OH2      OT      -0.834000       15.9994           0
     30950 WT2      2628     TIP3     H1       HT       0.417000        1.0080           0
     30951 WT2      2628     TIP3     H2       HT       0.417000        1.0080           0
     30952 WT2      2631     TIP3     OH2      OT      -0.834000       15.9994           0
     30953 WT2      2631     TIP3     H1       HT       0.417000        1.0080           0
     30954 WT2      2631     TIP3     H2       HT       0.417000        1.0080           0
     30955 WT2      2632     TIP3     OH2      OT      -0.834000       15.9994           0
     30956 WT2      2632     TIP3     H1       HT       0.417000        1.0080           0
     30957 WT2      2632     TIP3     H2       HT       0.417000        1.0080           0
     30958 WT2      2634     TIP3     OH2      OT      -0.834000       15.9994           0
     30959 WT2      2634     TIP3     H1       HT       0.417000        1.0080           0
     30960 WT2      2634     TIP3     H2       HT       0.417000        1.0080           0
     30961 WT2      2635     TIP3     OH2      OT      -0.834000       15.9994           0
     30962 WT2      2635     TIP3     H1       HT       0.417000        1.0080           0
     30963 WT2      2635     TIP3     H2       HT       0.417000        1.0080           0
     30964 WT2      2643     TIP3     OH2      OT      -0.834000       15.9994           0
     30965 WT2      2643     TIP3     H1       HT       0.417000        1.0080           0
     30966 WT2      2643     TIP3     H2       HT       0.417000        1.0080           0
     30967 WT2      2648     TIP3     OH2      OT      -0.834000       15.9994           0
     30968 WT2      2648     TIP3     H1       HT       0.417000        1.0080           0
     30969 WT2      2648     TIP3     H2       HT       0.417000        1.0080           0
     30970 WT2      2649     TIP3     OH2      OT      -0.834000       15.9994           0
     30971 WT2      2649     TIP3     H1       HT       0.417000        1.0080           0
     30972 WT2      2649     TIP3     H2       HT       0.417000        1.0080           0
     30973 WT2      2650     TIP3     OH2      OT      -0.834000       15.9994           0
     30974 WT2      2650     TIP3     H1       HT       0.417000        1.0080           0
     30975 WT2      2650     TIP3     H2       HT       0.417000        1.0080           0
     30976 WT2      2651     TIP3     OH2      OT      -0.834000       15.9994           0
     30977 WT2      2651     TIP3     H1       HT       0.417000        1.0080           0
     30978 WT2      2651     TIP3     H2       HT       0.417000        1.0080           0
     30979 WT2      2653     TIP3     OH2      OT      -0.834000       15.9994           0
     30980 WT2      2653     TIP3     H1       HT       0.417000        1.0080           0
     30981 WT2      2653     TIP3     H2       HT       0.417000        1.0080           0
     30982 WT2      2654     TIP3     OH2      OT      -0.834000       15.9994           0
     30983 WT2      2654     TIP3     H1       HT       0.417000        1.0080           0
     30984 WT2      2654     TIP3     H2       HT       0.417000        1.0080           0
     30985 WT2      2655     TIP3     OH2      OT      -0.834000       15.9994           0
     30986 WT2      2655     TIP3     H1       HT       0.417000        1.0080           0
     30987 WT2      2655     TIP3     H2       HT       0.417000        1.0080           0
     30988 WT2      2667     TIP3     OH2      OT      -0.834000       15.9994           0
     30989 WT2      2667     TIP3     H1       HT       0.417000        1.0080           0
     30990 WT2      2667     TIP3     H2       HT       0.417000        1.0080           0
     30991 WT2      2668     TIP3     OH2      OT      -0.834000       15.9994           0
     30992 WT2      2668     TIP3     H1       HT       0.417000        1.0080           0
     30993 WT2      2668     TIP3     H2       HT       0.417000        1.0080           0
     30994 WT2      2669     TIP3     OH2      OT      -0.834000       15.9994           0
     30995 WT2      2669     TIP3     H1       HT       0.417000        1.0080           0
     30996 WT2      2669     TIP3     H2       HT       0.417000        1.0080           0
     30997 WT2      2670     TIP3     OH2      OT      -0.834000       15.9994           0
     30998 WT2      2670     TIP3     H1       HT       0.417000        1.0080           0
     30999 WT2      2670     TIP3     H2       HT       0.417000        1.0080           0
     31000 WT2      2672     TIP3     OH2      OT      -0.834000       15.9994           0
     31001 WT2      2672     TIP3     H1       HT       0.417000        1.0080           0
     31002 WT2      2672     TIP3     H2       HT       0.417000        1.0080           0
     31003 WT2      2673     TIP3     OH2      OT      -0.834000       15.9994           0
     31004 WT2      2673     TIP3     H1       HT       0.417000        1.0080           0
     31005 WT2      2673     TIP3     H2       HT       0.417000        1.0080           0
     31006 WT2      2674     TIP3     OH2      OT      -0.834000       15.9994           0
     31007 WT2      2674     TIP3     H1       HT       0.417000        1.0080           0
     31008 WT2      2674     TIP3     H2       HT       0.417000        1.0080           0
     31009 WT2      2676     TIP3     OH2      OT      -0.834000       15.9994           0
     31010 WT2      2676     TIP3     H1       HT       0.417000        1.0080           0
     31011 WT2      2676     TIP3     H2       HT       0.417000        1.0080           0
     31012 WT2      2689     TIP3     OH2      OT      -0.834000       15.9994           0
     31013 WT2      2689     TIP3     H1       HT       0.417000        1.0080           0
     31014 WT2      2689     TIP3     H2       HT       0.417000        1.0080           0
     31015 WT2      2690     TIP3     OH2      OT      -0.834000       15.9994           0
     31016 WT2      2690     TIP3     H1       HT       0.417000        1.0080           0
     31017 WT2      2690     TIP3     H2       HT       0.417000        1.0080           0
     31018 WT2      2691     TIP3     OH2      OT      -0.834000       15.9994           0
     31019 WT2      2691     TIP3     H1       HT       0.417000        1.0080           0
     31020 WT2      2691     TIP3     H2       HT       0.417000        1.0080           0
     31021 WT2      2692     TIP3     OH2      OT      -0.834000       15.9994           0
     31022 WT2      2692     TIP3     H1       HT       0.417000        1.0080           0
     31023 WT2      2692     TIP3     H2       HT       0.417000        1.0080           0
     31024 WT2      2694     TIP3     OH2      OT      -0.834000       15.9994           0
     31025 WT2      2694     TIP3     H1       HT       0.417000        1.0080           0
     31026 WT2      2694     TIP3     H2       HT       0.417000        1.0080           0
     31027 WT2      2695     TIP3     OH2      OT      -0.834000       15.9994           0
     31028 WT2      2695     TIP3     H1       HT       0.417000        1.0080           0
     31029 WT2      2695     TIP3     H2       HT       0.417000        1.0080           0
     31030 WT2      2697     TIP3     OH2      OT      -0.834000       15.9994           0
     31031 WT2      2697     TIP3     H1       HT       0.417000        1.0080           0
     31032 WT2      2697     TIP3     H2       HT       0.417000        1.0080           0
     31033 WT2      2701     TIP3     OH2      OT      -0.834000       15.9994           0
     31034 WT2      2701     TIP3     H1       HT       0.417000        1.0080           0
     31035 WT2      2701     TIP3     H2       HT       0.417000        1.0080           0
     31036 WT2      2709     TIP3     OH2      OT      -0.834000       15.9994           0
     31037 WT2      2709     TIP3     H1       HT       0.417000        1.0080           0
     31038 WT2      2709     TIP3     H2       HT       0.417000        1.0080           0
     31039 WT2      2710     TIP3     OH2      OT      -0.834000       15.9994           0
     31040 WT2      2710     TIP3     H1       HT       0.417000        1.0080           0
     31041 WT2      2710     TIP3     H2       HT       0.417000        1.0080           0
     31042 WT2      2712     TIP3     OH2      OT      -0.834000       15.9994           0
     31043 WT2      2712     TIP3     H1       HT       0.417000        1.0080           0
     31044 WT2      2712     TIP3     H2       HT       0.417000        1.0080           0
     31045 WT2      2713     TIP3     OH2      OT      -0.834000       15.9994           0
     31046 WT2      2713     TIP3     H1       HT       0.417000        1.0080           0
     31047 WT2      2713     TIP3     H2       HT       0.417000        1.0080           0
     31048 WT2      2714     TIP3     OH2      OT      -0.834000       15.9994           0
     31049 WT2      2714     TIP3     H1       HT       0.417000        1.0080           0
     31050 WT2      2714     TIP3     H2       HT       0.417000        1.0080           0
     31051 WT2      2715     TIP3     OH2      OT      -0.834000       15.9994           0
     31052 WT2      2715     TIP3     H1       HT       0.417000        1.0080           0
     31053 WT2      2715     TIP3     H2       HT       0.417000        1.0080           0
     31054 WT2      2717     TIP3     OH2      OT      -0.834000       15.9994           0
     31055 WT2      2717     TIP3     H1       HT       0.417000        1.0080           0
     31056 WT2      2717     TIP3     H2       HT       0.417000        1.0080           0
     31057 WT2      2732     TIP3     OH2      OT      -0.834000       15.9994           0
     31058 WT2      2732     TIP3     H1       HT       0.417000        1.0080           0
     31059 WT2      2732     TIP3     H2       HT       0.417000        1.0080           0
     31060 WT2      2734     TIP3     OH2      OT      -0.834000       15.9994           0
     31061 WT2      2734     TIP3     H1       HT       0.417000        1.0080           0
     31062 WT2      2734     TIP3     H2       HT       0.417000        1.0080           0
     31063 WT2      2735     TIP3     OH2      OT      -0.834000       15.9994           0
     31064 WT2      2735     TIP3     H1       HT       0.417000        1.0080           0
     31065 WT2      2735     TIP3     H2       HT       0.417000        1.0080           0
     31066 WT2      2736     TIP3     OH2      OT      -0.834000       15.9994           0
     31067 WT2      2736     TIP3     H1       HT       0.417000        1.0080           0
     31068 WT2      2736     TIP3     H2       HT       0.417000        1.0080           0
     31069 WT2      2740     TIP3     OH2      OT      -0.834000       15.9994           0
     31070 WT2      2740     TIP3     H1       HT       0.417000        1.0080           0
     31071 WT2      2740     TIP3     H2       HT       0.417000        1.0080           0
     31072 WT2      2753     TIP3     OH2      OT      -0.834000       15.9994           0
     31073 WT2      2753     TIP3     H1       HT       0.417000        1.0080           0
     31074 WT2      2753     TIP3     H2       HT       0.417000        1.0080           0
     31075 WT2      2754     TIP3     OH2      OT      -0.834000       15.9994           0
     31076 WT2      2754     TIP3     H1       HT       0.417000        1.0080           0
     31077 WT2      2754     TIP3     H2       HT       0.417000        1.0080           0
     31078 WT2      2755     TIP3     OH2      OT      -0.834000       15.9994           0
     31079 WT2      2755     TIP3     H1       HT       0.417000        1.0080           0
     31080 WT2      2755     TIP3     H2       HT       0.417000        1.0080           0
     31081 WT2      2757     TIP3     OH2      OT      -0.834000       15.9994           0
     31082 WT2      2757     TIP3     H1       HT       0.417000        1.0080           0
     31083 WT2      2757     TIP3     H2       HT       0.417000        1.0080           0
     31084 WT2      2758     TIP3     OH2      OT      -0.834000       15.9994           0
     31085 WT2      2758     TIP3     H1       HT       0.417000        1.0080           0
     31086 WT2      2758     TIP3     H2       HT       0.417000        1.0080           0
     31087 WT2      2771     TIP3     OH2      OT      -0.834000       15.9994           0
     31088 WT2      2771     TIP3     H1       HT       0.417000        1.0080           0
     31089 WT2      2771     TIP3     H2       HT       0.417000        1.0080           0
     31090 WT2      2773     TIP3     OH2      OT      -0.834000       15.9994           0
     31091 WT2      2773     TIP3     H1       HT       0.417000        1.0080           0
     31092 WT2      2773     TIP3     H2       HT       0.417000        1.0080           0
     31093 WT2      2774     TIP3     OH2      OT      -0.834000       15.9994           0
     31094 WT2      2774     TIP3     H1       HT       0.417000        1.0080           0
     31095 WT2      2774     TIP3     H2       HT       0.417000        1.0080           0
     31096 WT2      2775     TIP3     OH2      OT      -0.834000       15.9994           0
     31097 WT2      2775     TIP3     H1       HT       0.417000        1.0080           0
     31098 WT2      2775     TIP3     H2       HT       0.417000        1.0080           0
     31099 WT2      2776     TIP3     OH2      OT      -0.834000       15.9994           0
     31100 WT2      2776     TIP3     H1       HT       0.417000        1.0080           0
     31101 WT2      2776     TIP3     H2       HT       0.417000        1.0080           0
     31102 WT2      2777     TIP3     OH2      OT      -0.834000       15.9994           0
     31103 WT2      2777     TIP3     H1       HT       0.417000        1.0080           0
     31104 WT2      2777     TIP3     H2       HT       0.417000        1.0080           0
     31105 WT2      2778     TIP3     OH2      OT      -0.834000       15.9994           0
     31106 WT2      2778     TIP3     H1       HT       0.417000        1.0080           0
     31107 WT2      2778     TIP3     H2       HT       0.417000        1.0080           0
     31108 WT2      2781     TIP3     OH2      OT      -0.834000       15.9994           0
     31109 WT2      2781     TIP3     H1       HT       0.417000        1.0080           0
     31110 WT2      2781     TIP3     H2       HT       0.417000        1.0080           0
     31111 WT2      2793     TIP3     OH2      OT      -0.834000       15.9994           0
     31112 WT2      2793     TIP3     H1       HT       0.417000        1.0080           0
     31113 WT2      2793     TIP3     H2       HT       0.417000        1.0080           0
     31114 WT2      2794     TIP3     OH2      OT      -0.834000       15.9994           0
     31115 WT2      2794     TIP3     H1       HT       0.417000        1.0080           0
     31116 WT2      2794     TIP3     H2       HT       0.417000        1.0080           0
     31117 WT2      2795     TIP3     OH2      OT      -0.834000       15.9994           0
     31118 WT2      2795     TIP3     H1       HT       0.417000        1.0080           0
     31119 WT2      2795     TIP3     H2       HT       0.417000        1.0080           0
     31120 WT2      2796     TIP3     OH2      OT      -0.834000       15.9994           0
     31121 WT2      2796     TIP3     H1       HT       0.417000        1.0080           0
     31122 WT2      2796     TIP3     H2       HT       0.417000        1.0080           0
     31123 WT2      2797     TIP3     OH2      OT      -0.834000       15.9994           0
     31124 WT2      2797     TIP3     H1       HT       0.417000        1.0080           0
     31125 WT2      2797     TIP3     H2       HT       0.417000        1.0080           0
     31126 WT2      2798     TIP3     OH2      OT      -0.834000       15.9994           0
     31127 WT2      2798     TIP3     H1       HT       0.417000        1.0080           0
     31128 WT2      2798     TIP3     H2       HT       0.417000        1.0080           0
     31129 WT2      2802     TIP3     OH2      OT      -0.834000       15.9994           0
     31130 WT2      2802     TIP3     H1       HT       0.417000        1.0080           0
     31131 WT2      2802     TIP3     H2       HT       0.417000        1.0080           0
     31132 WT2      2814     TIP3     OH2      OT      -0.834000       15.9994           0
     31133 WT2      2814     TIP3     H1       HT       0.417000        1.0080           0
     31134 WT2      2814     TIP3     H2       HT       0.417000        1.0080           0
     31135 WT2      2815     TIP3     OH2      OT      -0.834000       15.9994           0
     31136 WT2      2815     TIP3     H1       HT       0.417000        1.0080           0
     31137 WT2      2815     TIP3     H2       HT       0.417000        1.0080           0
     31138 WT2      2817     TIP3     OH2      OT      -0.834000       15.9994           0
     31139 WT2      2817     TIP3     H1       HT       0.417000        1.0080           0
     31140 WT2      2817     TIP3     H2       HT       0.417000        1.0080           0
     31141 WT2      2818     TIP3     OH2      OT      -0.834000       15.9994           0
     31142 WT2      2818     TIP3     H1       HT       0.417000        1.0080           0
     31143 WT2      2818     TIP3     H2       HT       0.417000        1.0080           0
     31144 WT2      2819     TIP3     OH2      OT      -0.834000       15.9994           0
     31145 WT2      2819     TIP3     H1       HT       0.417000        1.0080           0
     31146 WT2      2819     TIP3     H2       HT       0.417000        1.0080           0
     31147 WT2      2820     TIP3     OH2      OT      -0.834000       15.9994           0
     31148 WT2      2820     TIP3     H1       HT       0.417000        1.0080           0
     31149 WT2      2820     TIP3     H2       HT       0.417000        1.0080           0
     31150 WT2      2821     TIP3     OH2      OT      -0.834000       15.9994           0
     31151 WT2      2821     TIP3     H1       HT       0.417000        1.0080           0
     31152 WT2      2821     TIP3     H2       HT       0.417000        1.0080           0
     31153 WT2      2822     TIP3     OH2      OT      -0.834000       15.9994           0
     31154 WT2      2822     TIP3     H1       HT       0.417000        1.0080           0
     31155 WT2      2822     TIP3     H2       HT       0.417000        1.0080           0
     31156 WT2      2823     TIP3     OH2      OT      -0.834000       15.9994           0
     31157 WT2      2823     TIP3     H1       HT       0.417000        1.0080           0
     31158 WT2      2823     TIP3     H2       HT       0.417000        1.0080           0
     31159 WT2      2832     TIP3     OH2      OT      -0.834000       15.9994           0
     31160 WT2      2832     TIP3     H1       HT       0.417000        1.0080           0
     31161 WT2      2832     TIP3     H2       HT       0.417000        1.0080           0
     31162 WT2      2838     TIP3     OH2      OT      -0.834000       15.9994           0
     31163 WT2      2838     TIP3     H1       HT       0.417000        1.0080           0
     31164 WT2      2838     TIP3     H2       HT       0.417000        1.0080           0
     31165 WT2      2839     TIP3     OH2      OT      -0.834000       15.9994           0
     31166 WT2      2839     TIP3     H1       HT       0.417000        1.0080           0
     31167 WT2      2839     TIP3     H2       HT       0.417000        1.0080           0
     31168 WT2      2840     TIP3     OH2      OT      -0.834000       15.9994           0
     31169 WT2      2840     TIP3     H1       HT       0.417000        1.0080           0
     31170 WT2      2840     TIP3     H2       HT       0.417000        1.0080           0
     31171 WT2      2841     TIP3     OH2      OT      -0.834000       15.9994           0
     31172 WT2      2841     TIP3     H1       HT       0.417000        1.0080           0
     31173 WT2      2841     TIP3     H2       HT       0.417000        1.0080           0
     31174 WT2      2842     TIP3     OH2      OT      -0.834000       15.9994           0
     31175 WT2      2842     TIP3     H1       HT       0.417000        1.0080           0
     31176 WT2      2842     TIP3     H2       HT       0.417000        1.0080           0
     31177 WT2      2843     TIP3     OH2      OT      -0.834000       15.9994           0
     31178 WT2      2843     TIP3     H1       HT       0.417000        1.0080           0
     31179 WT2      2843     TIP3     H2       HT       0.417000        1.0080           0
     31180 WT2      2857     TIP3     OH2      OT      -0.834000       15.9994           0
     31181 WT2      2857     TIP3     H1       HT       0.417000        1.0080           0
     31182 WT2      2857     TIP3     H2       HT       0.417000        1.0080           0
     31183 WT2      2859     TIP3     OH2      OT      -0.834000       15.9994           0
     31184 WT2      2859     TIP3     H1       HT       0.417000        1.0080           0
     31185 WT2      2859     TIP3     H2       HT       0.417000        1.0080           0
     31186 WT2      2861     TIP3     OH2      OT      -0.834000       15.9994           0
     31187 WT2      2861     TIP3     H1       HT       0.417000        1.0080           0
     31188 WT2      2861     TIP3     H2       HT       0.417000        1.0080           0
     31189 WT2      2862     TIP3     OH2      OT      -0.834000       15.9994           0
     31190 WT2      2862     TIP3     H1       HT       0.417000        1.0080           0
     31191 WT2      2862     TIP3     H2       HT       0.417000        1.0080           0
     31192 WT2      2863     TIP3     OH2      OT      -0.834000       15.9994           0
     31193 WT2      2863     TIP3     H1       HT       0.417000        1.0080           0
     31194 WT2      2863     TIP3     H2       HT       0.417000        1.0080           0
     31195 WT2      2864     TIP3     OH2      OT      -0.834000       15.9994           0
     31196 WT2      2864     TIP3     H1       HT       0.417000        1.0080           0
     31197 WT2      2864     TIP3     H2       HT       0.417000        1.0080           0
     31198 WT2      2877     TIP3     OH2      OT      -0.834000       15.9994           0
     31199 WT2      2877     TIP3     H1       HT       0.417000        1.0080           0
     31200 WT2      2877     TIP3     H2       HT       0.417000        1.0080           0
     31201 WT2      2878     TIP3     OH2      OT      -0.834000       15.9994           0
     31202 WT2      2878     TIP3     H1       HT       0.417000        1.0080           0
     31203 WT2      2878     TIP3     H2       HT       0.417000        1.0080           0
     31204 WT2      2880     TIP3     OH2      OT      -0.834000       15.9994           0
     31205 WT2      2880     TIP3     H1       HT       0.417000        1.0080           0
     31206 WT2      2880     TIP3     H2       HT       0.417000        1.0080           0
     31207 WT2      2882     TIP3     OH2      OT      -0.834000       15.9994           0
     31208 WT2      2882     TIP3     H1       HT       0.417000        1.0080           0
     31209 WT2      2882     TIP3     H2       HT       0.417000        1.0080           0
     31210 WT2      2883     TIP3     OH2      OT      -0.834000       15.9994           0
     31211 WT2      2883     TIP3     H1       HT       0.417000        1.0080           0
     31212 WT2      2883     TIP3     H2       HT       0.417000        1.0080           0
     31213 WT2      2884     TIP3     OH2      OT      -0.834000       15.9994           0
     31214 WT2      2884     TIP3     H1       HT       0.417000        1.0080           0
     31215 WT2      2884     TIP3     H2       HT       0.417000        1.0080           0
     31216 WT2      2899     TIP3     OH2      OT      -0.834000       15.9994           0
     31217 WT2      2899     TIP3     H1       HT       0.417000        1.0080           0
     31218 WT2      2899     TIP3     H2       HT       0.417000        1.0080           0
     31219 WT2      2900     TIP3     OH2      OT      -0.834000       15.9994           0
     31220 WT2      2900     TIP3     H1       HT       0.417000        1.0080           0
     31221 WT2      2900     TIP3     H2       HT       0.417000        1.0080           0
     31222 WT2      2901     TIP3     OH2      OT      -0.834000       15.9994           0
     31223 WT2      2901     TIP3     H1       HT       0.417000        1.0080           0
     31224 WT2      2901     TIP3     H2       HT       0.417000        1.0080           0
     31225 WT2      2902     TIP3     OH2      OT      -0.834000       15.9994           0
     31226 WT2      2902     TIP3     H1       HT       0.417000        1.0080           0
     31227 WT2      2902     TIP3     H2       HT       0.417000        1.0080           0
     31228 WT2      2903     TIP3     OH2      OT      -0.834000       15.9994           0
     31229 WT2      2903     TIP3     H1       HT       0.417000        1.0080           0
     31230 WT2      2903     TIP3     H2       HT       0.417000        1.0080           0
     31231 WT2      2904     TIP3     OH2      OT      -0.834000       15.9994           0
     31232 WT2      2904     TIP3     H1       HT       0.417000        1.0080           0
     31233 WT2      2904     TIP3     H2       HT       0.417000        1.0080           0
     31234 WT2      2905     TIP3     OH2      OT      -0.834000       15.9994           0
     31235 WT2      2905     TIP3     H1       HT       0.417000        1.0080           0
     31236 WT2      2905     TIP3     H2       HT       0.417000        1.0080           0
     31237 WT2      2908     TIP3     OH2      OT      -0.834000       15.9994           0
     31238 WT2      2908     TIP3     H1       HT       0.417000        1.0080           0
     31239 WT2      2908     TIP3     H2       HT       0.417000        1.0080           0
     31240 WT2      2918     TIP3     OH2      OT      -0.834000       15.9994           0
     31241 WT2      2918     TIP3     H1       HT       0.417000        1.0080           0
     31242 WT2      2918     TIP3     H2       HT       0.417000        1.0080           0
     31243 WT2      2919     TIP3     OH2      OT      -0.834000       15.9994           0
     31244 WT2      2919     TIP3     H1       HT       0.417000        1.0080           0
     31245 WT2      2919     TIP3     H2       HT       0.417000        1.0080           0
     31246 WT2      2920     TIP3     OH2      OT      -0.834000       15.9994           0
     31247 WT2      2920     TIP3     H1       HT       0.417000        1.0080           0
     31248 WT2      2920     TIP3     H2       HT       0.417000        1.0080           0
     31249 WT2      2922     TIP3     OH2      OT      -0.834000       15.9994           0
     31250 WT2      2922     TIP3     H1       HT       0.417000        1.0080           0
     31251 WT2      2922     TIP3     H2       HT       0.417000        1.0080           0
     31252 WT2      2923     TIP3     OH2      OT      -0.834000       15.9994           0
     31253 WT2      2923     TIP3     H1       HT       0.417000        1.0080           0
     31254 WT2      2923     TIP3     H2       HT       0.417000        1.0080           0
     31255 WT2      2925     TIP3     OH2      OT      -0.834000       15.9994           0
     31256 WT2      2925     TIP3     H1       HT       0.417000        1.0080           0
     31257 WT2      2925     TIP3     H2       HT       0.417000        1.0080           0
     31258 WT2      2927     TIP3     OH2      OT      -0.834000       15.9994           0
     31259 WT2      2927     TIP3     H1       HT       0.417000        1.0080           0
     31260 WT2      2927     TIP3     H2       HT       0.417000        1.0080           0
     31261 WT2      2938     TIP3     OH2      OT      -0.834000       15.9994           0
     31262 WT2      2938     TIP3     H1       HT       0.417000        1.0080           0
     31263 WT2      2938     TIP3     H2       HT       0.417000        1.0080           0
     31264 WT2      2941     TIP3     OH2      OT      -0.834000       15.9994           0
     31265 WT2      2941     TIP3     H1       HT       0.417000        1.0080           0
     31266 WT2      2941     TIP3     H2       HT       0.417000        1.0080           0
     31267 WT2      2942     TIP3     OH2      OT      -0.834000       15.9994           0
     31268 WT2      2942     TIP3     H1       HT       0.417000        1.0080           0
     31269 WT2      2942     TIP3     H2       HT       0.417000        1.0080           0
     31270 WT2      2943     TIP3     OH2      OT      -0.834000       15.9994           0
     31271 WT2      2943     TIP3     H1       HT       0.417000        1.0080           0
     31272 WT2      2943     TIP3     H2       HT       0.417000        1.0080           0
     31273 WT2      2944     TIP3     OH2      OT      -0.834000       15.9994           0
     31274 WT2      2944     TIP3     H1       HT       0.417000        1.0080           0
     31275 WT2      2944     TIP3     H2       HT       0.417000        1.0080           0
     31276 WT2      2945     TIP3     OH2      OT      -0.834000       15.9994           0
     31277 WT2      2945     TIP3     H1       HT       0.417000        1.0080           0
     31278 WT2      2945     TIP3     H2       HT       0.417000        1.0080           0
     31279 WT2      2946     TIP3     OH2      OT      -0.834000       15.9994           0
     31280 WT2      2946     TIP3     H1       HT       0.417000        1.0080           0
     31281 WT2      2946     TIP3     H2       HT       0.417000        1.0080           0
     31282 WT2      2960     TIP3     OH2      OT      -0.834000       15.9994           0
     31283 WT2      2960     TIP3     H1       HT       0.417000        1.0080           0
     31284 WT2      2960     TIP3     H2       HT       0.417000        1.0080           0
     31285 WT2      2961     TIP3     OH2      OT      -0.834000       15.9994           0
     31286 WT2      2961     TIP3     H1       HT       0.417000        1.0080           0
     31287 WT2      2961     TIP3     H2       HT       0.417000        1.0080           0
     31288 WT2      2963     TIP3     OH2      OT      -0.834000       15.9994           0
     31289 WT2      2963     TIP3     H1       HT       0.417000        1.0080           0
     31290 WT2      2963     TIP3     H2       HT       0.417000        1.0080           0
     31291 WT2      2964     TIP3     OH2      OT      -0.834000       15.9994           0
     31292 WT2      2964     TIP3     H1       HT       0.417000        1.0080           0
     31293 WT2      2964     TIP3     H2       HT       0.417000        1.0080           0
     31294 WT2      2966     TIP3     OH2      OT      -0.834000       15.9994           0
     31295 WT2      2966     TIP3     H1       HT       0.417000        1.0080           0
     31296 WT2      2966     TIP3     H2       HT       0.417000        1.0080           0
     31297 WT2      2967     TIP3     OH2      OT      -0.834000       15.9994           0
     31298 WT2      2967     TIP3     H1       HT       0.417000        1.0080           0
     31299 WT2      2967     TIP3     H2       HT       0.417000        1.0080           0
     31300 WT2      2969     TIP3     OH2      OT      -0.834000       15.9994           0
     31301 WT2      2969     TIP3     H1       HT       0.417000        1.0080           0
     31302 WT2      2969     TIP3     H2       HT       0.417000        1.0080           0
     31303 WT2      2972     TIP3     OH2      OT      -0.834000       15.9994           0
     31304 WT2      2972     TIP3     H1       HT       0.417000        1.0080           0
     31305 WT2      2972     TIP3     H2       HT       0.417000        1.0080           0
     31306 WT2      2979     TIP3     OH2      OT      -0.834000       15.9994           0
     31307 WT2      2979     TIP3     H1       HT       0.417000        1.0080           0
     31308 WT2      2979     TIP3     H2       HT       0.417000        1.0080           0
     31309 WT2      2981     TIP3     OH2      OT      -0.834000       15.9994           0
     31310 WT2      2981     TIP3     H1       HT       0.417000        1.0080           0
     31311 WT2      2981     TIP3     H2       HT       0.417000        1.0080           0
     31312 WT2      2983     TIP3     OH2      OT      -0.834000       15.9994           0
     31313 WT2      2983     TIP3     H1       HT       0.417000        1.0080           0
     31314 WT2      2983     TIP3     H2       HT       0.417000        1.0080           0
     31315 WT2      2984     TIP3     OH2      OT      -0.834000       15.9994           0
     31316 WT2      2984     TIP3     H1       HT       0.417000        1.0080           0
     31317 WT2      2984     TIP3     H2       HT       0.417000        1.0080           0
     31318 WT2      2986     TIP3     OH2      OT      -0.834000       15.9994           0
     31319 WT2      2986     TIP3     H1       HT       0.417000        1.0080           0
     31320 WT2      2986     TIP3     H2       HT       0.417000        1.0080           0
     31321 WT2      2988     TIP3     OH2      OT      -0.834000       15.9994           0
     31322 WT2      2988     TIP3     H1       HT       0.417000        1.0080           0
     31323 WT2      2988     TIP3     H2       HT       0.417000        1.0080           0
     31324 WT2      2989     TIP3     OH2      OT      -0.834000       15.9994           0
     31325 WT2      2989     TIP3     H1       HT       0.417000        1.0080           0
     31326 WT2      2989     TIP3     H2       HT       0.417000        1.0080           0
     31327 WT2      2990     TIP3     OH2      OT      -0.834000       15.9994           0
     31328 WT2      2990     TIP3     H1       HT       0.417000        1.0080           0
     31329 WT2      2990     TIP3     H2       HT       0.417000        1.0080           0
     31330 WT2      2992     TIP3     OH2      OT      -0.834000       15.9994           0
     31331 WT2      2992     TIP3     H1       HT       0.417000        1.0080           0
     31332 WT2      2992     TIP3     H2       HT       0.417000        1.0080           0
     31333 WT2      3002     TIP3     OH2      OT      -0.834000       15.9994           0
     31334 WT2      3002     TIP3     H1       HT       0.417000        1.0080           0
     31335 WT2      3002     TIP3     H2       HT       0.417000        1.0080           0
     31336 WT2      3006     TIP3     OH2      OT      -0.834000       15.9994           0
     31337 WT2      3006     TIP3     H1       HT       0.417000        1.0080           0
     31338 WT2      3006     TIP3     H2       HT       0.417000        1.0080           0
     31339 WT2      3007     TIP3     OH2      OT      -0.834000       15.9994           0
     31340 WT2      3007     TIP3     H1       HT       0.417000        1.0080           0
     31341 WT2      3007     TIP3     H2       HT       0.417000        1.0080           0
     31342 WT2      3009     TIP3     OH2      OT      -0.834000       15.9994           0
     31343 WT2      3009     TIP3     H1       HT       0.417000        1.0080           0
     31344 WT2      3009     TIP3     H2       HT       0.417000        1.0080           0
     31345 WT2      3010     TIP3     OH2      OT      -0.834000       15.9994           0
     31346 WT2      3010     TIP3     H1       HT       0.417000        1.0080           0
     31347 WT2      3010     TIP3     H2       HT       0.417000        1.0080           0
     31348 WT2      3011     TIP3     OH2      OT      -0.834000       15.9994           0
     31349 WT2      3011     TIP3     H1       HT       0.417000        1.0080           0
     31350 WT2      3011     TIP3     H2       HT       0.417000        1.0080           0
     31351 WT2      3012     TIP3     OH2      OT      -0.834000       15.9994           0
     31352 WT2      3012     TIP3     H1       HT       0.417000        1.0080           0
     31353 WT2      3012     TIP3     H2       HT       0.417000        1.0080           0
     31354 WT2      3013     TIP3     OH2      OT      -0.834000       15.9994           0
     31355 WT2      3013     TIP3     H1       HT       0.417000        1.0080           0
     31356 WT2      3013     TIP3     H2       HT       0.417000        1.0080           0
     31357 WT2      3018     TIP3     OH2      OT      -0.834000       15.9994           0
     31358 WT2      3018     TIP3     H1       HT       0.417000        1.0080           0
     31359 WT2      3018     TIP3     H2       HT       0.417000        1.0080           0
     31360 WT2      3027     TIP3     OH2      OT      -0.834000       15.9994           0
     31361 WT2      3027     TIP3     H1       HT       0.417000        1.0080           0
     31362 WT2      3027     TIP3     H2       HT       0.417000        1.0080           0
     31363 WT2      3028     TIP3     OH2      OT      -0.834000       15.9994           0
     31364 WT2      3028     TIP3     H1       HT       0.417000        1.0080           0
     31365 WT2      3028     TIP3     H2       HT       0.417000        1.0080           0
     31366 WT2      3029     TIP3     OH2      OT      -0.834000       15.9994           0
     31367 WT2      3029     TIP3     H1       HT       0.417000        1.0080           0
     31368 WT2      3029     TIP3     H2       HT       0.417000        1.0080           0
     31369 WT2      3030     TIP3     OH2      OT      -0.834000       15.9994           0
     31370 WT2      3030     TIP3     H1       HT       0.417000        1.0080           0
     31371 WT2      3030     TIP3     H2       HT       0.417000        1.0080           0
     31372 WT2      3034     TIP3     OH2      OT      -0.834000       15.9994           0
     31373 WT2      3034     TIP3     H1       HT       0.417000        1.0080           0
     31374 WT2      3034     TIP3     H2       HT       0.417000        1.0080           0
     31375 WT2      3035     TIP3     OH2      OT      -0.834000       15.9994           0
     31376 WT2      3035     TIP3     H1       HT       0.417000        1.0080           0
     31377 WT2      3035     TIP3     H2       HT       0.417000        1.0080           0
     31378 WT2      3046     TIP3     OH2      OT      -0.834000       15.9994           0
     31379 WT2      3046     TIP3     H1       HT       0.417000        1.0080           0
     31380 WT2      3046     TIP3     H2       HT       0.417000        1.0080           0
     31381 WT2      3048     TIP3     OH2      OT      -0.834000       15.9994           0
     31382 WT2      3048     TIP3     H1       HT       0.417000        1.0080           0
     31383 WT2      3048     TIP3     H2       HT       0.417000        1.0080           0
     31384 WT2      3049     TIP3     OH2      OT      -0.834000       15.9994           0
     31385 WT2      3049     TIP3     H1       HT       0.417000        1.0080           0
     31386 WT2      3049     TIP3     H2       HT       0.417000        1.0080           0
     31387 WT2      3050     TIP3     OH2      OT      -0.834000       15.9994           0
     31388 WT2      3050     TIP3     H1       HT       0.417000        1.0080           0
     31389 WT2      3050     TIP3     H2       HT       0.417000        1.0080           0
     31390 WT2      3051     TIP3     OH2      OT      -0.834000       15.9994           0
     31391 WT2      3051     TIP3     H1       HT       0.417000        1.0080           0
     31392 WT2      3051     TIP3     H2       HT       0.417000        1.0080           0
     31393 WT2      3052     TIP3     OH2      OT      -0.834000       15.9994           0
     31394 WT2      3052     TIP3     H1       HT       0.417000        1.0080           0
     31395 WT2      3052     TIP3     H2       HT       0.417000        1.0080           0
     31396 WT2      3067     TIP3     OH2      OT      -0.834000       15.9994           0
     31397 WT2      3067     TIP3     H1       HT       0.417000        1.0080           0
     31398 WT2      3067     TIP3     H2       HT       0.417000        1.0080           0
     31399 WT2      3069     TIP3     OH2      OT      -0.834000       15.9994           0
     31400 WT2      3069     TIP3     H1       HT       0.417000        1.0080           0
     31401 WT2      3069     TIP3     H2       HT       0.417000        1.0080           0
     31402 WT2      3070     TIP3     OH2      OT      -0.834000       15.9994           0
     31403 WT2      3070     TIP3     H1       HT       0.417000        1.0080           0
     31404 WT2      3070     TIP3     H2       HT       0.417000        1.0080           0
     31405 WT2      3072     TIP3     OH2      OT      -0.834000       15.9994           0
     31406 WT2      3072     TIP3     H1       HT       0.417000        1.0080           0
     31407 WT2      3072     TIP3     H2       HT       0.417000        1.0080           0
     31408 WT2      3073     TIP3     OH2      OT      -0.834000       15.9994           0
     31409 WT2      3073     TIP3     H1       HT       0.417000        1.0080           0
     31410 WT2      3073     TIP3     H2       HT       0.417000        1.0080           0
     31411 WT2      3076     TIP3     OH2      OT      -0.834000       15.9994           0
     31412 WT2      3076     TIP3     H1       HT       0.417000        1.0080           0
     31413 WT2      3076     TIP3     H2       HT       0.417000        1.0080           0
     31414 WT2      3085     TIP3     OH2      OT      -0.834000       15.9994           0
     31415 WT2      3085     TIP3     H1       HT       0.417000        1.0080           0
     31416 WT2      3085     TIP3     H2       HT       0.417000        1.0080           0
     31417 WT2      3086     TIP3     OH2      OT      -0.834000       15.9994           0
     31418 WT2      3086     TIP3     H1       HT       0.417000        1.0080           0
     31419 WT2      3086     TIP3     H2       HT       0.417000        1.0080           0
     31420 WT2      3087     TIP3     OH2      OT      -0.834000       15.9994           0
     31421 WT2      3087     TIP3     H1       HT       0.417000        1.0080           0
     31422 WT2      3087     TIP3     H2       HT       0.417000        1.0080           0
     31423 WT2      3088     TIP3     OH2      OT      -0.834000       15.9994           0
     31424 WT2      3088     TIP3     H1       HT       0.417000        1.0080           0
     31425 WT2      3088     TIP3     H2       HT       0.417000        1.0080           0
     31426 WT2      3091     TIP3     OH2      OT      -0.834000       15.9994           0
     31427 WT2      3091     TIP3     H1       HT       0.417000        1.0080           0
     31428 WT2      3091     TIP3     H2       HT       0.417000        1.0080           0
     31429 WT2      3092     TIP3     OH2      OT      -0.834000       15.9994           0
     31430 WT2      3092     TIP3     H1       HT       0.417000        1.0080           0
     31431 WT2      3092     TIP3     H2       HT       0.417000        1.0080           0
     31432 WT2      3093     TIP3     OH2      OT      -0.834000       15.9994           0
     31433 WT2      3093     TIP3     H1       HT       0.417000        1.0080           0
     31434 WT2      3093     TIP3     H2       HT       0.417000        1.0080           0
     31435 WT2      3094     TIP3     OH2      OT      -0.834000       15.9994           0
     31436 WT2      3094     TIP3     H1       HT       0.417000        1.0080           0
     31437 WT2      3094     TIP3     H2       HT       0.417000        1.0080           0
     31438 WT2      3095     TIP3     OH2      OT      -0.834000       15.9994           0
     31439 WT2      3095     TIP3     H1       HT       0.417000        1.0080           0
     31440 WT2      3095     TIP3     H2       HT       0.417000        1.0080           0
     31441 WT2      3096     TIP3     OH2      OT      -0.834000       15.9994           0
     31442 WT2      3096     TIP3     H1       HT       0.417000        1.0080           0
     31443 WT2      3096     TIP3     H2       HT       0.417000        1.0080           0
     31444 WT2      3097     TIP3     OH2      OT      -0.834000       15.9994           0
     31445 WT2      3097     TIP3     H1       HT       0.417000        1.0080           0
     31446 WT2      3097     TIP3     H2       HT       0.417000        1.0080           0
     31447 WT2      3108     TIP3     OH2      OT      -0.834000       15.9994           0
     31448 WT2      3108     TIP3     H1       HT       0.417000        1.0080           0
     31449 WT2      3108     TIP3     H2       HT       0.417000        1.0080           0
     31450 WT2      3109     TIP3     OH2      OT      -0.834000       15.9994           0
     31451 WT2      3109     TIP3     H1       HT       0.417000        1.0080           0
     31452 WT2      3109     TIP3     H2       HT       0.417000        1.0080           0
     31453 WT2      3110     TIP3     OH2      OT      -0.834000       15.9994           0
     31454 WT2      3110     TIP3     H1       HT       0.417000        1.0080           0
     31455 WT2      3110     TIP3     H2       HT       0.417000        1.0080           0
     31456 WT2      3111     TIP3     OH2      OT      -0.834000       15.9994           0
     31457 WT2      3111     TIP3     H1       HT       0.417000        1.0080           0
     31458 WT2      3111     TIP3     H2       HT       0.417000        1.0080           0
     31459 WT2      3112     TIP3     OH2      OT      -0.834000       15.9994           0
     31460 WT2      3112     TIP3     H1       HT       0.417000        1.0080           0
     31461 WT2      3112     TIP3     H2       HT       0.417000        1.0080           0
     31462 WT2      3113     TIP3     OH2      OT      -0.834000       15.9994           0
     31463 WT2      3113     TIP3     H1       HT       0.417000        1.0080           0
     31464 WT2      3113     TIP3     H2       HT       0.417000        1.0080           0
     31465 WT2      3114     TIP3     OH2      OT      -0.834000       15.9994           0
     31466 WT2      3114     TIP3     H1       HT       0.417000        1.0080           0
     31467 WT2      3114     TIP3     H2       HT       0.417000        1.0080           0
     31468 WT2      3115     TIP3     OH2      OT      -0.834000       15.9994           0
     31469 WT2      3115     TIP3     H1       HT       0.417000        1.0080           0
     31470 WT2      3115     TIP3     H2       HT       0.417000        1.0080           0
     31471 WT2      3116     TIP3     OH2      OT      -0.834000       15.9994           0
     31472 WT2      3116     TIP3     H1       HT       0.417000        1.0080           0
     31473 WT2      3116     TIP3     H2       HT       0.417000        1.0080           0
     31474 WT2      3128     TIP3     OH2      OT      -0.834000       15.9994           0
     31475 WT2      3128     TIP3     H1       HT       0.417000        1.0080           0
     31476 WT2      3128     TIP3     H2       HT       0.417000        1.0080           0
     31477 WT2      3129     TIP3     OH2      OT      -0.834000       15.9994           0
     31478 WT2      3129     TIP3     H1       HT       0.417000        1.0080           0
     31479 WT2      3129     TIP3     H2       HT       0.417000        1.0080           0
     31480 WT2      3131     TIP3     OH2      OT      -0.834000       15.9994           0
     31481 WT2      3131     TIP3     H1       HT       0.417000        1.0080           0
     31482 WT2      3131     TIP3     H2       HT       0.417000        1.0080           0
     31483 WT2      3134     TIP3     OH2      OT      -0.834000       15.9994           0
     31484 WT2      3134     TIP3     H1       HT       0.417000        1.0080           0
     31485 WT2      3134     TIP3     H2       HT       0.417000        1.0080           0
     31486 WT2      3138     TIP3     OH2      OT      -0.834000       15.9994           0
     31487 WT2      3138     TIP3     H1       HT       0.417000        1.0080           0
     31488 WT2      3138     TIP3     H2       HT       0.417000        1.0080           0
     31489 WT2      3140     TIP3     OH2      OT      -0.834000       15.9994           0
     31490 WT2      3140     TIP3     H1       HT       0.417000        1.0080           0
     31491 WT2      3140     TIP3     H2       HT       0.417000        1.0080           0
     31492 WT2      3150     TIP3     OH2      OT      -0.834000       15.9994           0
     31493 WT2      3150     TIP3     H1       HT       0.417000        1.0080           0
     31494 WT2      3150     TIP3     H2       HT       0.417000        1.0080           0
     31495 WT2      3151     TIP3     OH2      OT      -0.834000       15.9994           0
     31496 WT2      3151     TIP3     H1       HT       0.417000        1.0080           0
     31497 WT2      3151     TIP3     H2       HT       0.417000        1.0080           0
     31498 WT2      3152     TIP3     OH2      OT      -0.834000       15.9994           0
     31499 WT2      3152     TIP3     H1       HT       0.417000        1.0080           0
     31500 WT2      3152     TIP3     H2       HT       0.417000        1.0080           0
     31501 WT2      3153     TIP3     OH2      OT      -0.834000       15.9994           0
     31502 WT2      3153     TIP3     H1       HT       0.417000        1.0080           0
     31503 WT2      3153     TIP3     H2       HT       0.417000        1.0080           0
     31504 WT2      3154     TIP3     OH2      OT      -0.834000       15.9994           0
     31505 WT2      3154     TIP3     H1       HT       0.417000        1.0080           0
     31506 WT2      3154     TIP3     H2       HT       0.417000        1.0080           0
     31507 WT2      3155     TIP3     OH2      OT      -0.834000       15.9994           0
     31508 WT2      3155     TIP3     H1       HT       0.417000        1.0080           0
     31509 WT2      3155     TIP3     H2       HT       0.417000        1.0080           0
     31510 WT2      3157     TIP3     OH2      OT      -0.834000       15.9994           0
     31511 WT2      3157     TIP3     H1       HT       0.417000        1.0080           0
     31512 WT2      3157     TIP3     H2       HT       0.417000        1.0080           0
     31513 WT2      3173     TIP3     OH2      OT      -0.834000       15.9994           0
     31514 WT2      3173     TIP3     H1       HT       0.417000        1.0080           0
     31515 WT2      3173     TIP3     H2       HT       0.417000        1.0080           0
     31516 WT2      3174     TIP3     OH2      OT      -0.834000       15.9994           0
     31517 WT2      3174     TIP3     H1       HT       0.417000        1.0080           0
     31518 WT2      3174     TIP3     H2       HT       0.417000        1.0080           0
     31519 WT2      3176     TIP3     OH2      OT      -0.834000       15.9994           0
     31520 WT2      3176     TIP3     H1       HT       0.417000        1.0080           0
     31521 WT2      3176     TIP3     H2       HT       0.417000        1.0080           0
     31522 WT2      3177     TIP3     OH2      OT      -0.834000       15.9994           0
     31523 WT2      3177     TIP3     H1       HT       0.417000        1.0080           0
     31524 WT2      3177     TIP3     H2       HT       0.417000        1.0080           0
     31525 WT2      3179     TIP3     OH2      OT      -0.834000       15.9994           0
     31526 WT2      3179     TIP3     H1       HT       0.417000        1.0080           0
     31527 WT2      3179     TIP3     H2       HT       0.417000        1.0080           0
     31528 WT2      3180     TIP3     OH2      OT      -0.834000       15.9994           0
     31529 WT2      3180     TIP3     H1       HT       0.417000        1.0080           0
     31530 WT2      3180     TIP3     H2       HT       0.417000        1.0080           0
     31531 WT2      3187     TIP3     OH2      OT      -0.834000       15.9994           0
     31532 WT2      3187     TIP3     H1       HT       0.417000        1.0080           0
     31533 WT2      3187     TIP3     H2       HT       0.417000        1.0080           0
     31534 WT2      3192     TIP3     OH2      OT      -0.834000       15.9994           0
     31535 WT2      3192     TIP3     H1       HT       0.417000        1.0080           0
     31536 WT2      3192     TIP3     H2       HT       0.417000        1.0080           0
     31537 WT2      3193     TIP3     OH2      OT      -0.834000       15.9994           0
     31538 WT2      3193     TIP3     H1       HT       0.417000        1.0080           0
     31539 WT2      3193     TIP3     H2       HT       0.417000        1.0080           0
     31540 WT2      3195     TIP3     OH2      OT      -0.834000       15.9994           0
     31541 WT2      3195     TIP3     H1       HT       0.417000        1.0080           0
     31542 WT2      3195     TIP3     H2       HT       0.417000        1.0080           0
     31543 WT2      3196     TIP3     OH2      OT      -0.834000       15.9994           0
     31544 WT2      3196     TIP3     H1       HT       0.417000        1.0080           0
     31545 WT2      3196     TIP3     H2       HT       0.417000        1.0080           0
     31546 WT2      3197     TIP3     OH2      OT      -0.834000       15.9994           0
     31547 WT2      3197     TIP3     H1       HT       0.417000        1.0080           0
     31548 WT2      3197     TIP3     H2       HT       0.417000        1.0080           0
     31549 WT2      3198     TIP3     OH2      OT      -0.834000       15.9994           0
     31550 WT2      3198     TIP3     H1       HT       0.417000        1.0080           0
     31551 WT2      3198     TIP3     H2       HT       0.417000        1.0080           0
     31552 WT2      3200     TIP3     OH2      OT      -0.834000       15.9994           0
     31553 WT2      3200     TIP3     H1       HT       0.417000        1.0080           0
     31554 WT2      3200     TIP3     H2       HT       0.417000        1.0080           0
     31555 WT2      3202     TIP3     OH2      OT      -0.834000       15.9994           0
     31556 WT2      3202     TIP3     H1       HT       0.417000        1.0080           0
     31557 WT2      3202     TIP3     H2       HT       0.417000        1.0080           0
     31558 WT2      3214     TIP3     OH2      OT      -0.834000       15.9994           0
     31559 WT2      3214     TIP3     H1       HT       0.417000        1.0080           0
     31560 WT2      3214     TIP3     H2       HT       0.417000        1.0080           0
     31561 WT2      3215     TIP3     OH2      OT      -0.834000       15.9994           0
     31562 WT2      3215     TIP3     H1       HT       0.417000        1.0080           0
     31563 WT2      3215     TIP3     H2       HT       0.417000        1.0080           0
     31564 WT2      3218     TIP3     OH2      OT      -0.834000       15.9994           0
     31565 WT2      3218     TIP3     H1       HT       0.417000        1.0080           0
     31566 WT2      3218     TIP3     H2       HT       0.417000        1.0080           0
     31567 WT2      3219     TIP3     OH2      OT      -0.834000       15.9994           0
     31568 WT2      3219     TIP3     H1       HT       0.417000        1.0080           0
     31569 WT2      3219     TIP3     H2       HT       0.417000        1.0080           0
     31570 WT2      3220     TIP3     OH2      OT      -0.834000       15.9994           0
     31571 WT2      3220     TIP3     H1       HT       0.417000        1.0080           0
     31572 WT2      3220     TIP3     H2       HT       0.417000        1.0080           0
     31573 WT2      3223     TIP3     OH2      OT      -0.834000       15.9994           0
     31574 WT2      3223     TIP3     H1       HT       0.417000        1.0080           0
     31575 WT2      3223     TIP3     H2       HT       0.417000        1.0080           0
     31576 WT2      3233     TIP3     OH2      OT      -0.834000       15.9994           0
     31577 WT2      3233     TIP3     H1       HT       0.417000        1.0080           0
     31578 WT2      3233     TIP3     H2       HT       0.417000        1.0080           0
     31579 WT2      3234     TIP3     OH2      OT      -0.834000       15.9994           0
     31580 WT2      3234     TIP3     H1       HT       0.417000        1.0080           0
     31581 WT2      3234     TIP3     H2       HT       0.417000        1.0080           0
     31582 WT2      3236     TIP3     OH2      OT      -0.834000       15.9994           0
     31583 WT2      3236     TIP3     H1       HT       0.417000        1.0080           0
     31584 WT2      3236     TIP3     H2       HT       0.417000        1.0080           0
     31585 WT2      3237     TIP3     OH2      OT      -0.834000       15.9994           0
     31586 WT2      3237     TIP3     H1       HT       0.417000        1.0080           0
     31587 WT2      3237     TIP3     H2       HT       0.417000        1.0080           0
     31588 WT2      3238     TIP3     OH2      OT      -0.834000       15.9994           0
     31589 WT2      3238     TIP3     H1       HT       0.417000        1.0080           0
     31590 WT2      3238     TIP3     H2       HT       0.417000        1.0080           0
     31591 WT2      3239     TIP3     OH2      OT      -0.834000       15.9994           0
     31592 WT2      3239     TIP3     H1       HT       0.417000        1.0080           0
     31593 WT2      3239     TIP3     H2       HT       0.417000        1.0080           0
     31594 WT2      3240     TIP3     OH2      OT      -0.834000       15.9994           0
     31595 WT2      3240     TIP3     H1       HT       0.417000        1.0080           0
     31596 WT2      3240     TIP3     H2       HT       0.417000        1.0080           0
     31597 WT2      3241     TIP3     OH2      OT      -0.834000       15.9994           0
     31598 WT2      3241     TIP3     H1       HT       0.417000        1.0080           0
     31599 WT2      3241     TIP3     H2       HT       0.417000        1.0080           0
     31600 WT2      3242     TIP3     OH2      OT      -0.834000       15.9994           0
     31601 WT2      3242     TIP3     H1       HT       0.417000        1.0080           0
     31602 WT2      3242     TIP3     H2       HT       0.417000        1.0080           0
     31603 WT2      3243     TIP3     OH2      OT      -0.834000       15.9994           0
     31604 WT2      3243     TIP3     H1       HT       0.417000        1.0080           0
     31605 WT2      3243     TIP3     H2       HT       0.417000        1.0080           0
     31606 WT2      3244     TIP3     OH2      OT      -0.834000       15.9994           0
     31607 WT2      3244     TIP3     H1       HT       0.417000        1.0080           0
     31608 WT2      3244     TIP3     H2       HT       0.417000        1.0080           0
     31609 WT2      3257     TIP3     OH2      OT      -0.834000       15.9994           0
     31610 WT2      3257     TIP3     H1       HT       0.417000        1.0080           0
     31611 WT2      3257     TIP3     H2       HT       0.417000        1.0080           0
     31612 WT2      3258     TIP3     OH2      OT      -0.834000       15.9994           0
     31613 WT2      3258     TIP3     H1       HT       0.417000        1.0080           0
     31614 WT2      3258     TIP3     H2       HT       0.417000        1.0080           0
     31615 WT2      3262     TIP3     OH2      OT      -0.834000       15.9994           0
     31616 WT2      3262     TIP3     H1       HT       0.417000        1.0080           0
     31617 WT2      3262     TIP3     H2       HT       0.417000        1.0080           0
     31618 WT2      3274     TIP3     OH2      OT      -0.834000       15.9994           0
     31619 WT2      3274     TIP3     H1       HT       0.417000        1.0080           0
     31620 WT2      3274     TIP3     H2       HT       0.417000        1.0080           0
     31621 WT2      3275     TIP3     OH2      OT      -0.834000       15.9994           0
     31622 WT2      3275     TIP3     H1       HT       0.417000        1.0080           0
     31623 WT2      3275     TIP3     H2       HT       0.417000        1.0080           0
     31624 WT2      3276     TIP3     OH2      OT      -0.834000       15.9994           0
     31625 WT2      3276     TIP3     H1       HT       0.417000        1.0080           0
     31626 WT2      3276     TIP3     H2       HT       0.417000        1.0080           0
     31627 WT2      3277     TIP3     OH2      OT      -0.834000       15.9994           0
     31628 WT2      3277     TIP3     H1       HT       0.417000        1.0080           0
     31629 WT2      3277     TIP3     H2       HT       0.417000        1.0080           0
     31630 WT2      3278     TIP3     OH2      OT      -0.834000       15.9994           0
     31631 WT2      3278     TIP3     H1       HT       0.417000        1.0080           0
     31632 WT2      3278     TIP3     H2       HT       0.417000        1.0080           0
     31633 WT2      3279     TIP3     OH2      OT      -0.834000       15.9994           0
     31634 WT2      3279     TIP3     H1       HT       0.417000        1.0080           0
     31635 WT2      3279     TIP3     H2       HT       0.417000        1.0080           0
     31636 WT2      3280     TIP3     OH2      OT      -0.834000       15.9994           0
     31637 WT2      3280     TIP3     H1       HT       0.417000        1.0080           0
     31638 WT2      3280     TIP3     H2       HT       0.417000        1.0080           0
     31639 WT2      3282     TIP3     OH2      OT      -0.834000       15.9994           0
     31640 WT2      3282     TIP3     H1       HT       0.417000        1.0080           0
     31641 WT2      3282     TIP3     H2       HT       0.417000        1.0080           0
     31642 WT2      3283     TIP3     OH2      OT      -0.834000       15.9994           0
     31643 WT2      3283     TIP3     H1       HT       0.417000        1.0080           0
     31644 WT2      3283     TIP3     H2       HT       0.417000        1.0080           0
     31645 WT2      3284     TIP3     OH2      OT      -0.834000       15.9994           0
     31646 WT2      3284     TIP3     H1       HT       0.417000        1.0080           0
     31647 WT2      3284     TIP3     H2       HT       0.417000        1.0080           0
     31648 WT2      3285     TIP3     OH2      OT      -0.834000       15.9994           0
     31649 WT2      3285     TIP3     H1       HT       0.417000        1.0080           0
     31650 WT2      3285     TIP3     H2       HT       0.417000        1.0080           0
     31651 WT2      3289     TIP3     OH2      OT      -0.834000       15.9994           0
     31652 WT2      3289     TIP3     H1       HT       0.417000        1.0080           0
     31653 WT2      3289     TIP3     H2       HT       0.417000        1.0080           0
     31654 WT2      3296     TIP3     OH2      OT      -0.834000       15.9994           0
     31655 WT2      3296     TIP3     H1       HT       0.417000        1.0080           0
     31656 WT2      3296     TIP3     H2       HT       0.417000        1.0080           0
     31657 WT2      3298     TIP3     OH2      OT      -0.834000       15.9994           0
     31658 WT2      3298     TIP3     H1       HT       0.417000        1.0080           0
     31659 WT2      3298     TIP3     H2       HT       0.417000        1.0080           0
     31660 WT2      3301     TIP3     OH2      OT      -0.834000       15.9994           0
     31661 WT2      3301     TIP3     H1       HT       0.417000        1.0080           0
     31662 WT2      3301     TIP3     H2       HT       0.417000        1.0080           0
     31663 WT2      3302     TIP3     OH2      OT      -0.834000       15.9994           0
     31664 WT2      3302     TIP3     H1       HT       0.417000        1.0080           0
     31665 WT2      3302     TIP3     H2       HT       0.417000        1.0080           0
     31666 WT2      3303     TIP3     OH2      OT      -0.834000       15.9994           0
     31667 WT2      3303     TIP3     H1       HT       0.417000        1.0080           0
     31668 WT2      3303     TIP3     H2       HT       0.417000        1.0080           0
     31669 WT2      3304     TIP3     OH2      OT      -0.834000       15.9994           0
     31670 WT2      3304     TIP3     H1       HT       0.417000        1.0080           0
     31671 WT2      3304     TIP3     H2       HT       0.417000        1.0080           0
     31672 WT2      3308     TIP3     OH2      OT      -0.834000       15.9994           0
     31673 WT2      3308     TIP3     H1       HT       0.417000        1.0080           0
     31674 WT2      3308     TIP3     H2       HT       0.417000        1.0080           0
     31675 WT2      3317     TIP3     OH2      OT      -0.834000       15.9994           0
     31676 WT2      3317     TIP3     H1       HT       0.417000        1.0080           0
     31677 WT2      3317     TIP3     H2       HT       0.417000        1.0080           0
     31678 WT2      3319     TIP3     OH2      OT      -0.834000       15.9994           0
     31679 WT2      3319     TIP3     H1       HT       0.417000        1.0080           0
     31680 WT2      3319     TIP3     H2       HT       0.417000        1.0080           0
     31681 WT2      3320     TIP3     OH2      OT      -0.834000       15.9994           0
     31682 WT2      3320     TIP3     H1       HT       0.417000        1.0080           0
     31683 WT2      3320     TIP3     H2       HT       0.417000        1.0080           0
     31684 WT2      3321     TIP3     OH2      OT      -0.834000       15.9994           0
     31685 WT2      3321     TIP3     H1       HT       0.417000        1.0080           0
     31686 WT2      3321     TIP3     H2       HT       0.417000        1.0080           0
     31687 WT2      3322     TIP3     OH2      OT      -0.834000       15.9994           0
     31688 WT2      3322     TIP3     H1       HT       0.417000        1.0080           0
     31689 WT2      3322     TIP3     H2       HT       0.417000        1.0080           0
     31690 WT2      3323     TIP3     OH2      OT      -0.834000       15.9994           0
     31691 WT2      3323     TIP3     H1       HT       0.417000        1.0080           0
     31692 WT2      3323     TIP3     H2       HT       0.417000        1.0080           0
     31693 WT2      3326     TIP3     OH2      OT      -0.834000       15.9994           0
     31694 WT2      3326     TIP3     H1       HT       0.417000        1.0080           0
     31695 WT2      3326     TIP3     H2       HT       0.417000        1.0080           0
     31696 WT2      3337     TIP3     OH2      OT      -0.834000       15.9994           0
     31697 WT2      3337     TIP3     H1       HT       0.417000        1.0080           0
     31698 WT2      3337     TIP3     H2       HT       0.417000        1.0080           0
     31699 WT2      3341     TIP3     OH2      OT      -0.834000       15.9994           0
     31700 WT2      3341     TIP3     H1       HT       0.417000        1.0080           0
     31701 WT2      3341     TIP3     H2       HT       0.417000        1.0080           0
     31702 WT2      3342     TIP3     OH2      OT      -0.834000       15.9994           0
     31703 WT2      3342     TIP3     H1       HT       0.417000        1.0080           0
     31704 WT2      3342     TIP3     H2       HT       0.417000        1.0080           0
     31705 WT2      3344     TIP3     OH2      OT      -0.834000       15.9994           0
     31706 WT2      3344     TIP3     H1       HT       0.417000        1.0080           0
     31707 WT2      3344     TIP3     H2       HT       0.417000        1.0080           0
     31708 WT2      3345     TIP3     OH2      OT      -0.834000       15.9994           0
     31709 WT2      3345     TIP3     H1       HT       0.417000        1.0080           0
     31710 WT2      3345     TIP3     H2       HT       0.417000        1.0080           0
     31711 WT2      3347     TIP3     OH2      OT      -0.834000       15.9994           0
     31712 WT2      3347     TIP3     H1       HT       0.417000        1.0080           0
     31713 WT2      3347     TIP3     H2       HT       0.417000        1.0080           0
     31714 WT2      3348     TIP3     OH2      OT      -0.834000       15.9994           0
     31715 WT2      3348     TIP3     H1       HT       0.417000        1.0080           0
     31716 WT2      3348     TIP3     H2       HT       0.417000        1.0080           0
     31717 WT2      3349     TIP3     OH2      OT      -0.834000       15.9994           0
     31718 WT2      3349     TIP3     H1       HT       0.417000        1.0080           0
     31719 WT2      3349     TIP3     H2       HT       0.417000        1.0080           0
     31720 WT2      3360     TIP3     OH2      OT      -0.834000       15.9994           0
     31721 WT2      3360     TIP3     H1       HT       0.417000        1.0080           0
     31722 WT2      3360     TIP3     H2       HT       0.417000        1.0080           0
     31723 WT2      3361     TIP3     OH2      OT      -0.834000       15.9994           0
     31724 WT2      3361     TIP3     H1       HT       0.417000        1.0080           0
     31725 WT2      3361     TIP3     H2       HT       0.417000        1.0080           0
     31726 WT2      3362     TIP3     OH2      OT      -0.834000       15.9994           0
     31727 WT2      3362     TIP3     H1       HT       0.417000        1.0080           0
     31728 WT2      3362     TIP3     H2       HT       0.417000        1.0080           0
     31729 WT2      3363     TIP3     OH2      OT      -0.834000       15.9994           0
     31730 WT2      3363     TIP3     H1       HT       0.417000        1.0080           0
     31731 WT2      3363     TIP3     H2       HT       0.417000        1.0080           0
     31732 WT2      3364     TIP3     OH2      OT      -0.834000       15.9994           0
     31733 WT2      3364     TIP3     H1       HT       0.417000        1.0080           0
     31734 WT2      3364     TIP3     H2       HT       0.417000        1.0080           0
     31735 WT2      3365     TIP3     OH2      OT      -0.834000       15.9994           0
     31736 WT2      3365     TIP3     H1       HT       0.417000        1.0080           0
     31737 WT2      3365     TIP3     H2       HT       0.417000        1.0080           0
     31738 WT2      3366     TIP3     OH2      OT      -0.834000       15.9994           0
     31739 WT2      3366     TIP3     H1       HT       0.417000        1.0080           0
     31740 WT2      3366     TIP3     H2       HT       0.417000        1.0080           0
     31741 WT2      3367     TIP3     OH2      OT      -0.834000       15.9994           0
     31742 WT2      3367     TIP3     H1       HT       0.417000        1.0080           0
     31743 WT2      3367     TIP3     H2       HT       0.417000        1.0080           0
     31744 WT2      3371     TIP3     OH2      OT      -0.834000       15.9994           0
     31745 WT2      3371     TIP3     H1       HT       0.417000        1.0080           0
     31746 WT2      3371     TIP3     H2       HT       0.417000        1.0080           0
     31747 WT2      3381     TIP3     OH2      OT      -0.834000       15.9994           0
     31748 WT2      3381     TIP3     H1       HT       0.417000        1.0080           0
     31749 WT2      3381     TIP3     H2       HT       0.417000        1.0080           0
     31750 WT2      3382     TIP3     OH2      OT      -0.834000       15.9994           0
     31751 WT2      3382     TIP3     H1       HT       0.417000        1.0080           0
     31752 WT2      3382     TIP3     H2       HT       0.417000        1.0080           0
     31753 WT2      3383     TIP3     OH2      OT      -0.834000       15.9994           0
     31754 WT2      3383     TIP3     H1       HT       0.417000        1.0080           0
     31755 WT2      3383     TIP3     H2       HT       0.417000        1.0080           0
     31756 WT2      3384     TIP3     OH2      OT      -0.834000       15.9994           0
     31757 WT2      3384     TIP3     H1       HT       0.417000        1.0080           0
     31758 WT2      3384     TIP3     H2       HT       0.417000        1.0080           0
     31759 WT2      3386     TIP3     OH2      OT      -0.834000       15.9994           0
     31760 WT2      3386     TIP3     H1       HT       0.417000        1.0080           0
     31761 WT2      3386     TIP3     H2       HT       0.417000        1.0080           0
     31762 WT2      3387     TIP3     OH2      OT      -0.834000       15.9994           0
     31763 WT2      3387     TIP3     H1       HT       0.417000        1.0080           0
     31764 WT2      3387     TIP3     H2       HT       0.417000        1.0080           0
     31765 WT2      3388     TIP3     OH2      OT      -0.834000       15.9994           0
     31766 WT2      3388     TIP3     H1       HT       0.417000        1.0080           0
     31767 WT2      3388     TIP3     H2       HT       0.417000        1.0080           0
     31768 WT2      3389     TIP3     OH2      OT      -0.834000       15.9994           0
     31769 WT2      3389     TIP3     H1       HT       0.417000        1.0080           0
     31770 WT2      3389     TIP3     H2       HT       0.417000        1.0080           0
     31771 WT2      3402     TIP3     OH2      OT      -0.834000       15.9994           0
     31772 WT2      3402     TIP3     H1       HT       0.417000        1.0080           0
     31773 WT2      3402     TIP3     H2       HT       0.417000        1.0080           0
     31774 WT2      3404     TIP3     OH2      OT      -0.834000       15.9994           0
     31775 WT2      3404     TIP3     H1       HT       0.417000        1.0080           0
     31776 WT2      3404     TIP3     H2       HT       0.417000        1.0080           0
     31777 WT2      3405     TIP3     OH2      OT      -0.834000       15.9994           0
     31778 WT2      3405     TIP3     H1       HT       0.417000        1.0080           0
     31779 WT2      3405     TIP3     H2       HT       0.417000        1.0080           0
     31780 WT2      3406     TIP3     OH2      OT      -0.834000       15.9994           0
     31781 WT2      3406     TIP3     H1       HT       0.417000        1.0080           0
     31782 WT2      3406     TIP3     H2       HT       0.417000        1.0080           0
     31783 WT2      3407     TIP3     OH2      OT      -0.834000       15.9994           0
     31784 WT2      3407     TIP3     H1       HT       0.417000        1.0080           0
     31785 WT2      3407     TIP3     H2       HT       0.417000        1.0080           0
     31786 WT2      3408     TIP3     OH2      OT      -0.834000       15.9994           0
     31787 WT2      3408     TIP3     H1       HT       0.417000        1.0080           0
     31788 WT2      3408     TIP3     H2       HT       0.417000        1.0080           0
     31789 WT2      3409     TIP3     OH2      OT      -0.834000       15.9994           0
     31790 WT2      3409     TIP3     H1       HT       0.417000        1.0080           0
     31791 WT2      3409     TIP3     H2       HT       0.417000        1.0080           0
     31792 WT2      3411     TIP3     OH2      OT      -0.834000       15.9994           0
     31793 WT2      3411     TIP3     H1       HT       0.417000        1.0080           0
     31794 WT2      3411     TIP3     H2       HT       0.417000        1.0080           0
     31795 WT2      3422     TIP3     OH2      OT      -0.834000       15.9994           0
     31796 WT2      3422     TIP3     H1       HT       0.417000        1.0080           0
     31797 WT2      3422     TIP3     H2       HT       0.417000        1.0080           0
     31798 WT2      3424     TIP3     OH2      OT      -0.834000       15.9994           0
     31799 WT2      3424     TIP3     H1       HT       0.417000        1.0080           0
     31800 WT2      3424     TIP3     H2       HT       0.417000        1.0080           0
     31801 WT2      3426     TIP3     OH2      OT      -0.834000       15.9994           0
     31802 WT2      3426     TIP3     H1       HT       0.417000        1.0080           0
     31803 WT2      3426     TIP3     H2       HT       0.417000        1.0080           0
     31804 WT2      3427     TIP3     OH2      OT      -0.834000       15.9994           0
     31805 WT2      3427     TIP3     H1       HT       0.417000        1.0080           0
     31806 WT2      3427     TIP3     H2       HT       0.417000        1.0080           0
     31807 WT2      3428     TIP3     OH2      OT      -0.834000       15.9994           0
     31808 WT2      3428     TIP3     H1       HT       0.417000        1.0080           0
     31809 WT2      3428     TIP3     H2       HT       0.417000        1.0080           0
     31810 WT2      3429     TIP3     OH2      OT      -0.834000       15.9994           0
     31811 WT2      3429     TIP3     H1       HT       0.417000        1.0080           0
     31812 WT2      3429     TIP3     H2       HT       0.417000        1.0080           0
     31813 WT2      3430     TIP3     OH2      OT      -0.834000       15.9994           0
     31814 WT2      3430     TIP3     H1       HT       0.417000        1.0080           0
     31815 WT2      3430     TIP3     H2       HT       0.417000        1.0080           0
     31816 WT2      3431     TIP3     OH2      OT      -0.834000       15.9994           0
     31817 WT2      3431     TIP3     H1       HT       0.417000        1.0080           0
     31818 WT2      3431     TIP3     H2       HT       0.417000        1.0080           0
     31819 WT2      3442     TIP3     OH2      OT      -0.834000       15.9994           0
     31820 WT2      3442     TIP3     H1       HT       0.417000        1.0080           0
     31821 WT2      3442     TIP3     H2       HT       0.417000        1.0080           0
     31822 WT2      3443     TIP3     OH2      OT      -0.834000       15.9994           0
     31823 WT2      3443     TIP3     H1       HT       0.417000        1.0080           0
     31824 WT2      3443     TIP3     H2       HT       0.417000        1.0080           0
     31825 WT2      3444     TIP3     OH2      OT      -0.834000       15.9994           0
     31826 WT2      3444     TIP3     H1       HT       0.417000        1.0080           0
     31827 WT2      3444     TIP3     H2       HT       0.417000        1.0080           0
     31828 WT2      3445     TIP3     OH2      OT      -0.834000       15.9994           0
     31829 WT2      3445     TIP3     H1       HT       0.417000        1.0080           0
     31830 WT2      3445     TIP3     H2       HT       0.417000        1.0080           0
     31831 WT2      3446     TIP3     OH2      OT      -0.834000       15.9994           0
     31832 WT2      3446     TIP3     H1       HT       0.417000        1.0080           0
     31833 WT2      3446     TIP3     H2       HT       0.417000        1.0080           0
     31834 WT2      3447     TIP3     OH2      OT      -0.834000       15.9994           0
     31835 WT2      3447     TIP3     H1       HT       0.417000        1.0080           0
     31836 WT2      3447     TIP3     H2       HT       0.417000        1.0080           0
     31837 WT2      3449     TIP3     OH2      OT      -0.834000       15.9994           0
     31838 WT2      3449     TIP3     H1       HT       0.417000        1.0080           0
     31839 WT2      3449     TIP3     H2       HT       0.417000        1.0080           0
     31840 WT2      3450     TIP3     OH2      OT      -0.834000       15.9994           0
     31841 WT2      3450     TIP3     H1       HT       0.417000        1.0080           0
     31842 WT2      3450     TIP3     H2       HT       0.417000        1.0080           0
     31843 WT2      3452     TIP3     OH2      OT      -0.834000       15.9994           0
     31844 WT2      3452     TIP3     H1       HT       0.417000        1.0080           0
     31845 WT2      3452     TIP3     H2       HT       0.417000        1.0080           0
     31846 WT2      3465     TIP3     OH2      OT      -0.834000       15.9994           0
     31847 WT2      3465     TIP3     H1       HT       0.417000        1.0080           0
     31848 WT2      3465     TIP3     H2       HT       0.417000        1.0080           0
     31849 WT2      3466     TIP3     OH2      OT      -0.834000       15.9994           0
     31850 WT2      3466     TIP3     H1       HT       0.417000        1.0080           0
     31851 WT2      3466     TIP3     H2       HT       0.417000        1.0080           0
     31852 WT2      3467     TIP3     OH2      OT      -0.834000       15.9994           0
     31853 WT2      3467     TIP3     H1       HT       0.417000        1.0080           0
     31854 WT2      3467     TIP3     H2       HT       0.417000        1.0080           0
     31855 WT2      3469     TIP3     OH2      OT      -0.834000       15.9994           0
     31856 WT2      3469     TIP3     H1       HT       0.417000        1.0080           0
     31857 WT2      3469     TIP3     H2       HT       0.417000        1.0080           0
     31858 WT2      3470     TIP3     OH2      OT      -0.834000       15.9994           0
     31859 WT2      3470     TIP3     H1       HT       0.417000        1.0080           0
     31860 WT2      3470     TIP3     H2       HT       0.417000        1.0080           0
     31861 WT2      3471     TIP3     OH2      OT      -0.834000       15.9994           0
     31862 WT2      3471     TIP3     H1       HT       0.417000        1.0080           0
     31863 WT2      3471     TIP3     H2       HT       0.417000        1.0080           0
     31864 WT2      3472     TIP3     OH2      OT      -0.834000       15.9994           0
     31865 WT2      3472     TIP3     H1       HT       0.417000        1.0080           0
     31866 WT2      3472     TIP3     H2       HT       0.417000        1.0080           0
     31867 WT2      3473     TIP3     OH2      OT      -0.834000       15.9994           0
     31868 WT2      3473     TIP3     H1       HT       0.417000        1.0080           0
     31869 WT2      3473     TIP3     H2       HT       0.417000        1.0080           0
     31870 WT2      3476     TIP3     OH2      OT      -0.834000       15.9994           0
     31871 WT2      3476     TIP3     H1       HT       0.417000        1.0080           0
     31872 WT2      3476     TIP3     H2       HT       0.417000        1.0080           0
     31873 WT2      3484     TIP3     OH2      OT      -0.834000       15.9994           0
     31874 WT2      3484     TIP3     H1       HT       0.417000        1.0080           0
     31875 WT2      3484     TIP3     H2       HT       0.417000        1.0080           0
     31876 WT2      3486     TIP3     OH2      OT      -0.834000       15.9994           0
     31877 WT2      3486     TIP3     H1       HT       0.417000        1.0080           0
     31878 WT2      3486     TIP3     H2       HT       0.417000        1.0080           0
     31879 WT2      3488     TIP3     OH2      OT      -0.834000       15.9994           0
     31880 WT2      3488     TIP3     H1       HT       0.417000        1.0080           0
     31881 WT2      3488     TIP3     H2       HT       0.417000        1.0080           0
     31882 WT2      3489     TIP3     OH2      OT      -0.834000       15.9994           0
     31883 WT2      3489     TIP3     H1       HT       0.417000        1.0080           0
     31884 WT2      3489     TIP3     H2       HT       0.417000        1.0080           0
     31885 WT2      3490     TIP3     OH2      OT      -0.834000       15.9994           0
     31886 WT2      3490     TIP3     H1       HT       0.417000        1.0080           0
     31887 WT2      3490     TIP3     H2       HT       0.417000        1.0080           0
     31888 WT2      3491     TIP3     OH2      OT      -0.834000       15.9994           0
     31889 WT2      3491     TIP3     H1       HT       0.417000        1.0080           0
     31890 WT2      3491     TIP3     H2       HT       0.417000        1.0080           0
     31891 WT2      3492     TIP3     OH2      OT      -0.834000       15.9994           0
     31892 WT2      3492     TIP3     H1       HT       0.417000        1.0080           0
     31893 WT2      3492     TIP3     H2       HT       0.417000        1.0080           0
     31894 WT2      3494     TIP3     OH2      OT      -0.834000       15.9994           0
     31895 WT2      3494     TIP3     H1       HT       0.417000        1.0080           0
     31896 WT2      3494     TIP3     H2       HT       0.417000        1.0080           0
     31897 WT2      3495     TIP3     OH2      OT      -0.834000       15.9994           0
     31898 WT2      3495     TIP3     H1       HT       0.417000        1.0080           0
     31899 WT2      3495     TIP3     H2       HT       0.417000        1.0080           0
     31900 WT2      3508     TIP3     OH2      OT      -0.834000       15.9994           0
     31901 WT2      3508     TIP3     H1       HT       0.417000        1.0080           0
     31902 WT2      3508     TIP3     H2       HT       0.417000        1.0080           0
     31903 WT2      3510     TIP3     OH2      OT      -0.834000       15.9994           0
     31904 WT2      3510     TIP3     H1       HT       0.417000        1.0080           0
     31905 WT2      3510     TIP3     H2       HT       0.417000        1.0080           0
     31906 WT2      3511     TIP3     OH2      OT      -0.834000       15.9994           0
     31907 WT2      3511     TIP3     H1       HT       0.417000        1.0080           0
     31908 WT2      3511     TIP3     H2       HT       0.417000        1.0080           0
     31909 WT2      3512     TIP3     OH2      OT      -0.834000       15.9994           0
     31910 WT2      3512     TIP3     H1       HT       0.417000        1.0080           0
     31911 WT2      3512     TIP3     H2       HT       0.417000        1.0080           0
     31912 WT2      3513     TIP3     OH2      OT      -0.834000       15.9994           0
     31913 WT2      3513     TIP3     H1       HT       0.417000        1.0080           0
     31914 WT2      3513     TIP3     H2       HT       0.417000        1.0080           0
     31915 WT2      3514     TIP3     OH2      OT      -0.834000       15.9994           0
     31916 WT2      3514     TIP3     H1       HT       0.417000        1.0080           0
     31917 WT2      3514     TIP3     H2       HT       0.417000        1.0080           0
     31918 WT2      3516     TIP3     OH2      OT      -0.834000       15.9994           0
     31919 WT2      3516     TIP3     H1       HT       0.417000        1.0080           0
     31920 WT2      3516     TIP3     H2       HT       0.417000        1.0080           0
     31921 WT2      3526     TIP3     OH2      OT      -0.834000       15.9994           0
     31922 WT2      3526     TIP3     H1       HT       0.417000        1.0080           0
     31923 WT2      3526     TIP3     H2       HT       0.417000        1.0080           0
     31924 WT2      3527     TIP3     OH2      OT      -0.834000       15.9994           0
     31925 WT2      3527     TIP3     H1       HT       0.417000        1.0080           0
     31926 WT2      3527     TIP3     H2       HT       0.417000        1.0080           0
     31927 WT2      3530     TIP3     OH2      OT      -0.834000       15.9994           0
     31928 WT2      3530     TIP3     H1       HT       0.417000        1.0080           0
     31929 WT2      3530     TIP3     H2       HT       0.417000        1.0080           0
     31930 WT2      3531     TIP3     OH2      OT      -0.834000       15.9994           0
     31931 WT2      3531     TIP3     H1       HT       0.417000        1.0080           0
     31932 WT2      3531     TIP3     H2       HT       0.417000        1.0080           0
     31933 WT2      3532     TIP3     OH2      OT      -0.834000       15.9994           0
     31934 WT2      3532     TIP3     H1       HT       0.417000        1.0080           0
     31935 WT2      3532     TIP3     H2       HT       0.417000        1.0080           0
     31936 WT2      3533     TIP3     OH2      OT      -0.834000       15.9994           0
     31937 WT2      3533     TIP3     H1       HT       0.417000        1.0080           0
     31938 WT2      3533     TIP3     H2       HT       0.417000        1.0080           0
     31939 WT2      3534     TIP3     OH2      OT      -0.834000       15.9994           0
     31940 WT2      3534     TIP3     H1       HT       0.417000        1.0080           0
     31941 WT2      3534     TIP3     H2       HT       0.417000        1.0080           0
     31942 WT2      3535     TIP3     OH2      OT      -0.834000       15.9994           0
     31943 WT2      3535     TIP3     H1       HT       0.417000        1.0080           0
     31944 WT2      3535     TIP3     H2       HT       0.417000        1.0080           0
     31945 WT2      3536     TIP3     OH2      OT      -0.834000       15.9994           0
     31946 WT2      3536     TIP3     H1       HT       0.417000        1.0080           0
     31947 WT2      3536     TIP3     H2       HT       0.417000        1.0080           0
     31948 WT2      3539     TIP3     OH2      OT      -0.834000       15.9994           0
     31949 WT2      3539     TIP3     H1       HT       0.417000        1.0080           0
     31950 WT2      3539     TIP3     H2       HT       0.417000        1.0080           0
     31951 WT2      3545     TIP3     OH2      OT      -0.834000       15.9994           0
     31952 WT2      3545     TIP3     H1       HT       0.417000        1.0080           0
     31953 WT2      3545     TIP3     H2       HT       0.417000        1.0080           0
     31954 WT2      3548     TIP3     OH2      OT      -0.834000       15.9994           0
     31955 WT2      3548     TIP3     H1       HT       0.417000        1.0080           0
     31956 WT2      3548     TIP3     H2       HT       0.417000        1.0080           0
     31957 WT2      3549     TIP3     OH2      OT      -0.834000       15.9994           0
     31958 WT2      3549     TIP3     H1       HT       0.417000        1.0080           0
     31959 WT2      3549     TIP3     H2       HT       0.417000        1.0080           0
     31960 WT2      3550     TIP3     OH2      OT      -0.834000       15.9994           0
     31961 WT2      3550     TIP3     H1       HT       0.417000        1.0080           0
     31962 WT2      3550     TIP3     H2       HT       0.417000        1.0080           0
     31963 WT2      3551     TIP3     OH2      OT      -0.834000       15.9994           0
     31964 WT2      3551     TIP3     H1       HT       0.417000        1.0080           0
     31965 WT2      3551     TIP3     H2       HT       0.417000        1.0080           0
     31966 WT2      3554     TIP3     OH2      OT      -0.834000       15.9994           0
     31967 WT2      3554     TIP3     H1       HT       0.417000        1.0080           0
     31968 WT2      3554     TIP3     H2       HT       0.417000        1.0080           0
     31969 WT2      3555     TIP3     OH2      OT      -0.834000       15.9994           0
     31970 WT2      3555     TIP3     H1       HT       0.417000        1.0080           0
     31971 WT2      3555     TIP3     H2       HT       0.417000        1.0080           0
     31972 WT2      3559     TIP3     OH2      OT      -0.834000       15.9994           0
     31973 WT2      3559     TIP3     H1       HT       0.417000        1.0080           0
     31974 WT2      3559     TIP3     H2       HT       0.417000        1.0080           0
     31975 WT2      3569     TIP3     OH2      OT      -0.834000       15.9994           0
     31976 WT2      3569     TIP3     H1       HT       0.417000        1.0080           0
     31977 WT2      3569     TIP3     H2       HT       0.417000        1.0080           0
     31978 WT2      3570     TIP3     OH2      OT      -0.834000       15.9994           0
     31979 WT2      3570     TIP3     H1       HT       0.417000        1.0080           0
     31980 WT2      3570     TIP3     H2       HT       0.417000        1.0080           0
     31981 WT2      3572     TIP3     OH2      OT      -0.834000       15.9994           0
     31982 WT2      3572     TIP3     H1       HT       0.417000        1.0080           0
     31983 WT2      3572     TIP3     H2       HT       0.417000        1.0080           0
     31984 WT2      3573     TIP3     OH2      OT      -0.834000       15.9994           0
     31985 WT2      3573     TIP3     H1       HT       0.417000        1.0080           0
     31986 WT2      3573     TIP3     H2       HT       0.417000        1.0080           0
     31987 WT2      3574     TIP3     OH2      OT      -0.834000       15.9994           0
     31988 WT2      3574     TIP3     H1       HT       0.417000        1.0080           0
     31989 WT2      3574     TIP3     H2       HT       0.417000        1.0080           0
     31990 WT2      3575     TIP3     OH2      OT      -0.834000       15.9994           0
     31991 WT2      3575     TIP3     H1       HT       0.417000        1.0080           0
     31992 WT2      3575     TIP3     H2       HT       0.417000        1.0080           0
     31993 WT2      3591     TIP3     OH2      OT      -0.834000       15.9994           0
     31994 WT2      3591     TIP3     H1       HT       0.417000        1.0080           0
     31995 WT2      3591     TIP3     H2       HT       0.417000        1.0080           0
     31996 WT2      3592     TIP3     OH2      OT      -0.834000       15.9994           0
     31997 WT2      3592     TIP3     H1       HT       0.417000        1.0080           0
     31998 WT2      3592     TIP3     H2       HT       0.417000        1.0080           0
     31999 WT2      3593     TIP3     OH2      OT      -0.834000       15.9994           0
     32000 WT2      3593     TIP3     H1       HT       0.417000        1.0080           0
     32001 WT2      3593     TIP3     H2       HT       0.417000        1.0080           0
     32002 WT2      3594     TIP3     OH2      OT      -0.834000       15.9994           0
     32003 WT2      3594     TIP3     H1       HT       0.417000        1.0080           0
     32004 WT2      3594     TIP3     H2       HT       0.417000        1.0080           0
     32005 WT2      3595     TIP3     OH2      OT      -0.834000       15.9994           0
     32006 WT2      3595     TIP3     H1       HT       0.417000        1.0080           0
     32007 WT2      3595     TIP3     H2       HT       0.417000        1.0080           0
     32008 WT2      3596     TIP3     OH2      OT      -0.834000       15.9994           0
     32009 WT2      3596     TIP3     H1       HT       0.417000        1.0080           0
     32010 WT2      3596     TIP3     H2       HT       0.417000        1.0080           0
     32011 WT2      3597     TIP3     OH2      OT      -0.834000       15.9994           0
     32012 WT2      3597     TIP3     H1       HT       0.417000        1.0080           0
     32013 WT2      3597     TIP3     H2       HT       0.417000        1.0080           0
     32014 WT2      3599     TIP3     OH2      OT      -0.834000       15.9994           0
     32015 WT2      3599     TIP3     H1       HT       0.417000        1.0080           0
     32016 WT2      3599     TIP3     H2       HT       0.417000        1.0080           0
     32017 WT2      3612     TIP3     OH2      OT      -0.834000       15.9994           0
     32018 WT2      3612     TIP3     H1       HT       0.417000        1.0080           0
     32019 WT2      3612     TIP3     H2       HT       0.417000        1.0080           0
     32020 WT2      3614     TIP3     OH2      OT      -0.834000       15.9994           0
     32021 WT2      3614     TIP3     H1       HT       0.417000        1.0080           0
     32022 WT2      3614     TIP3     H2       HT       0.417000        1.0080           0
     32023 WT2      3615     TIP3     OH2      OT      -0.834000       15.9994           0
     32024 WT2      3615     TIP3     H1       HT       0.417000        1.0080           0
     32025 WT2      3615     TIP3     H2       HT       0.417000        1.0080           0
     32026 WT2      3619     TIP3     OH2      OT      -0.834000       15.9994           0
     32027 WT2      3619     TIP3     H1       HT       0.417000        1.0080           0
     32028 WT2      3619     TIP3     H2       HT       0.417000        1.0080           0
     32029 WT2      3623     TIP3     OH2      OT      -0.834000       15.9994           0
     32030 WT2      3623     TIP3     H1       HT       0.417000        1.0080           0
     32031 WT2      3623     TIP3     H2       HT       0.417000        1.0080           0
     32032 WT2      3633     TIP3     OH2      OT      -0.834000       15.9994           0
     32033 WT2      3633     TIP3     H1       HT       0.417000        1.0080           0
     32034 WT2      3633     TIP3     H2       HT       0.417000        1.0080           0
     32035 WT2      3634     TIP3     OH2      OT      -0.834000       15.9994           0
     32036 WT2      3634     TIP3     H1       HT       0.417000        1.0080           0
     32037 WT2      3634     TIP3     H2       HT       0.417000        1.0080           0
     32038 WT2      3636     TIP3     OH2      OT      -0.834000       15.9994           0
     32039 WT2      3636     TIP3     H1       HT       0.417000        1.0080           0
     32040 WT2      3636     TIP3     H2       HT       0.417000        1.0080           0
     32041 WT2      3638     TIP3     OH2      OT      -0.834000       15.9994           0
     32042 WT2      3638     TIP3     H1       HT       0.417000        1.0080           0
     32043 WT2      3638     TIP3     H2       HT       0.417000        1.0080           0
     32044 WT2      3639     TIP3     OH2      OT      -0.834000       15.9994           0
     32045 WT2      3639     TIP3     H1       HT       0.417000        1.0080           0
     32046 WT2      3639     TIP3     H2       HT       0.417000        1.0080           0
     32047 WT2      3641     TIP3     OH2      OT      -0.834000       15.9994           0
     32048 WT2      3641     TIP3     H1       HT       0.417000        1.0080           0
     32049 WT2      3641     TIP3     H2       HT       0.417000        1.0080           0
     32050 WT2      3650     TIP3     OH2      OT      -0.834000       15.9994           0
     32051 WT2      3650     TIP3     H1       HT       0.417000        1.0080           0
     32052 WT2      3650     TIP3     H2       HT       0.417000        1.0080           0
     32053 WT2      3651     TIP3     OH2      OT      -0.834000       15.9994           0
     32054 WT2      3651     TIP3     H1       HT       0.417000        1.0080           0
     32055 WT2      3651     TIP3     H2       HT       0.417000        1.0080           0
     32056 WT2      3653     TIP3     OH2      OT      -0.834000       15.9994           0
     32057 WT2      3653     TIP3     H1       HT       0.417000        1.0080           0
     32058 WT2      3653     TIP3     H2       HT       0.417000        1.0080           0
     32059 WT2      3657     TIP3     OH2      OT      -0.834000       15.9994           0
     32060 WT2      3657     TIP3     H1       HT       0.417000        1.0080           0
     32061 WT2      3657     TIP3     H2       HT       0.417000        1.0080           0
     32062 WT2      3658     TIP3     OH2      OT      -0.834000       15.9994           0
     32063 WT2      3658     TIP3     H1       HT       0.417000        1.0080           0
     32064 WT2      3658     TIP3     H2       HT       0.417000        1.0080           0
     32065 WT2      3659     TIP3     OH2      OT      -0.834000       15.9994           0
     32066 WT2      3659     TIP3     H1       HT       0.417000        1.0080           0
     32067 WT2      3659     TIP3     H2       HT       0.417000        1.0080           0
     32068 WT2      3660     TIP3     OH2      OT      -0.834000       15.9994           0
     32069 WT2      3660     TIP3     H1       HT       0.417000        1.0080           0
     32070 WT2      3660     TIP3     H2       HT       0.417000        1.0080           0
     32071 WT2      3661     TIP3     OH2      OT      -0.834000       15.9994           0
     32072 WT2      3661     TIP3     H1       HT       0.417000        1.0080           0
     32073 WT2      3661     TIP3     H2       HT       0.417000        1.0080           0
     32074 WT2      3662     TIP3     OH2      OT      -0.834000       15.9994           0
     32075 WT2      3662     TIP3     H1       HT       0.417000        1.0080           0
     32076 WT2      3662     TIP3     H2       HT       0.417000        1.0080           0
     32077 WT2      3674     TIP3     OH2      OT      -0.834000       15.9994           0
     32078 WT2      3674     TIP3     H1       HT       0.417000        1.0080           0
     32079 WT2      3674     TIP3     H2       HT       0.417000        1.0080           0
     32080 WT2      3675     TIP3     OH2      OT      -0.834000       15.9994           0
     32081 WT2      3675     TIP3     H1       HT       0.417000        1.0080           0
     32082 WT2      3675     TIP3     H2       HT       0.417000        1.0080           0
     32083 WT2      3677     TIP3     OH2      OT      -0.834000       15.9994           0
     32084 WT2      3677     TIP3     H1       HT       0.417000        1.0080           0
     32085 WT2      3677     TIP3     H2       HT       0.417000        1.0080           0
     32086 WT2      3681     TIP3     OH2      OT      -0.834000       15.9994           0
     32087 WT2      3681     TIP3     H1       HT       0.417000        1.0080           0
     32088 WT2      3681     TIP3     H2       HT       0.417000        1.0080           0
     32089 WT2      3682     TIP3     OH2      OT      -0.834000       15.9994           0
     32090 WT2      3682     TIP3     H1       HT       0.417000        1.0080           0
     32091 WT2      3682     TIP3     H2       HT       0.417000        1.0080           0
     32092 WT2      3693     TIP3     OH2      OT      -0.834000       15.9994           0
     32093 WT2      3693     TIP3     H1       HT       0.417000        1.0080           0
     32094 WT2      3693     TIP3     H2       HT       0.417000        1.0080           0
     32095 WT2      3697     TIP3     OH2      OT      -0.834000       15.9994           0
     32096 WT2      3697     TIP3     H1       HT       0.417000        1.0080           0
     32097 WT2      3697     TIP3     H2       HT       0.417000        1.0080           0
     32098 WT2      3698     TIP3     OH2      OT      -0.834000       15.9994           0
     32099 WT2      3698     TIP3     H1       HT       0.417000        1.0080           0
     32100 WT2      3698     TIP3     H2       HT       0.417000        1.0080           0
     32101 WT2      3700     TIP3     OH2      OT      -0.834000       15.9994           0
     32102 WT2      3700     TIP3     H1       HT       0.417000        1.0080           0
     32103 WT2      3700     TIP3     H2       HT       0.417000        1.0080           0
     32104 WT2      3701     TIP3     OH2      OT      -0.834000       15.9994           0
     32105 WT2      3701     TIP3     H1       HT       0.417000        1.0080           0
     32106 WT2      3701     TIP3     H2       HT       0.417000        1.0080           0
     32107 WT2      3702     TIP3     OH2      OT      -0.834000       15.9994           0
     32108 WT2      3702     TIP3     H1       HT       0.417000        1.0080           0
     32109 WT2      3702     TIP3     H2       HT       0.417000        1.0080           0
     32110 WT2      3703     TIP3     OH2      OT      -0.834000       15.9994           0
     32111 WT2      3703     TIP3     H1       HT       0.417000        1.0080           0
     32112 WT2      3703     TIP3     H2       HT       0.417000        1.0080           0
     32113 WT2      3705     TIP3     OH2      OT      -0.834000       15.9994           0
     32114 WT2      3705     TIP3     H1       HT       0.417000        1.0080           0
     32115 WT2      3705     TIP3     H2       HT       0.417000        1.0080           0
     32116 WT2      3708     TIP3     OH2      OT      -0.834000       15.9994           0
     32117 WT2      3708     TIP3     H1       HT       0.417000        1.0080           0
     32118 WT2      3708     TIP3     H2       HT       0.417000        1.0080           0
     32119 WT2      3718     TIP3     OH2      OT      -0.834000       15.9994           0
     32120 WT2      3718     TIP3     H1       HT       0.417000        1.0080           0
     32121 WT2      3718     TIP3     H2       HT       0.417000        1.0080           0
     32122 WT2      3719     TIP3     OH2      OT      -0.834000       15.9994           0
     32123 WT2      3719     TIP3     H1       HT       0.417000        1.0080           0
     32124 WT2      3719     TIP3     H2       HT       0.417000        1.0080           0
     32125 WT2      3720     TIP3     OH2      OT      -0.834000       15.9994           0
     32126 WT2      3720     TIP3     H1       HT       0.417000        1.0080           0
     32127 WT2      3720     TIP3     H2       HT       0.417000        1.0080           0
     32128 WT2      3721     TIP3     OH2      OT      -0.834000       15.9994           0
     32129 WT2      3721     TIP3     H1       HT       0.417000        1.0080           0
     32130 WT2      3721     TIP3     H2       HT       0.417000        1.0080           0
     32131 WT2      3722     TIP3     OH2      OT      -0.834000       15.9994           0
     32132 WT2      3722     TIP3     H1       HT       0.417000        1.0080           0
     32133 WT2      3722     TIP3     H2       HT       0.417000        1.0080           0
     32134 WT2      3723     TIP3     OH2      OT      -0.834000       15.9994           0
     32135 WT2      3723     TIP3     H1       HT       0.417000        1.0080           0
     32136 WT2      3723     TIP3     H2       HT       0.417000        1.0080           0
     32137 WT2      3724     TIP3     OH2      OT      -0.834000       15.9994           0
     32138 WT2      3724     TIP3     H1       HT       0.417000        1.0080           0
     32139 WT2      3724     TIP3     H2       HT       0.417000        1.0080           0
     32140 WT2      3727     TIP3     OH2      OT      -0.834000       15.9994           0
     32141 WT2      3727     TIP3     H1       HT       0.417000        1.0080           0
     32142 WT2      3727     TIP3     H2       HT       0.417000        1.0080           0
     32143 WT2      3728     TIP3     OH2      OT      -0.834000       15.9994           0
     32144 WT2      3728     TIP3     H1       HT       0.417000        1.0080           0
     32145 WT2      3728     TIP3     H2       HT       0.417000        1.0080           0
     32146 WT2      3737     TIP3     OH2      OT      -0.834000       15.9994           0
     32147 WT2      3737     TIP3     H1       HT       0.417000        1.0080           0
     32148 WT2      3737     TIP3     H2       HT       0.417000        1.0080           0
     32149 WT2      3740     TIP3     OH2      OT      -0.834000       15.9994           0
     32150 WT2      3740     TIP3     H1       HT       0.417000        1.0080           0
     32151 WT2      3740     TIP3     H2       HT       0.417000        1.0080           0
     32152 WT2      3743     TIP3     OH2      OT      -0.834000       15.9994           0
     32153 WT2      3743     TIP3     H1       HT       0.417000        1.0080           0
     32154 WT2      3743     TIP3     H2       HT       0.417000        1.0080           0
     32155 WT2      3757     TIP3     OH2      OT      -0.834000       15.9994           0
     32156 WT2      3757     TIP3     H1       HT       0.417000        1.0080           0
     32157 WT2      3757     TIP3     H2       HT       0.417000        1.0080           0
     32158 WT2      3758     TIP3     OH2      OT      -0.834000       15.9994           0
     32159 WT2      3758     TIP3     H1       HT       0.417000        1.0080           0
     32160 WT2      3758     TIP3     H2       HT       0.417000        1.0080           0
     32161 WT2      3761     TIP3     OH2      OT      -0.834000       15.9994           0
     32162 WT2      3761     TIP3     H1       HT       0.417000        1.0080           0
     32163 WT2      3761     TIP3     H2       HT       0.417000        1.0080           0
     32164 WT2      3762     TIP3     OH2      OT      -0.834000       15.9994           0
     32165 WT2      3762     TIP3     H1       HT       0.417000        1.0080           0
     32166 WT2      3762     TIP3     H2       HT       0.417000        1.0080           0
     32167 WT2      3763     TIP3     OH2      OT      -0.834000       15.9994           0
     32168 WT2      3763     TIP3     H1       HT       0.417000        1.0080           0
     32169 WT2      3763     TIP3     H2       HT       0.417000        1.0080           0
     32170 WT2      3764     TIP3     OH2      OT      -0.834000       15.9994           0
     32171 WT2      3764     TIP3     H1       HT       0.417000        1.0080           0
     32172 WT2      3764     TIP3     H2       HT       0.417000        1.0080           0
     32173 WT2      3765     TIP3     OH2      OT      -0.834000       15.9994           0
     32174 WT2      3765     TIP3     H1       HT       0.417000        1.0080           0
     32175 WT2      3765     TIP3     H2       HT       0.417000        1.0080           0
     32176 WT2      3770     TIP3     OH2      OT      -0.834000       15.9994           0
     32177 WT2      3770     TIP3     H1       HT       0.417000        1.0080           0
     32178 WT2      3770     TIP3     H2       HT       0.417000        1.0080           0
     32179 WT2      3776     TIP3     OH2      OT      -0.834000       15.9994           0
     32180 WT2      3776     TIP3     H1       HT       0.417000        1.0080           0
     32181 WT2      3776     TIP3     H2       HT       0.417000        1.0080           0
     32182 WT2      3779     TIP3     OH2      OT      -0.834000       15.9994           0
     32183 WT2      3779     TIP3     H1       HT       0.417000        1.0080           0
     32184 WT2      3779     TIP3     H2       HT       0.417000        1.0080           0
     32185 WT2      3782     TIP3     OH2      OT      -0.834000       15.9994           0
     32186 WT2      3782     TIP3     H1       HT       0.417000        1.0080           0
     32187 WT2      3782     TIP3     H2       HT       0.417000        1.0080           0
     32188 WT2      3783     TIP3     OH2      OT      -0.834000       15.9994           0
     32189 WT2      3783     TIP3     H1       HT       0.417000        1.0080           0
     32190 WT2      3783     TIP3     H2       HT       0.417000        1.0080           0
     32191 WT2      3784     TIP3     OH2      OT      -0.834000       15.9994           0
     32192 WT2      3784     TIP3     H1       HT       0.417000        1.0080           0
     32193 WT2      3784     TIP3     H2       HT       0.417000        1.0080           0
     32194 WT2      3785     TIP3     OH2      OT      -0.834000       15.9994           0
     32195 WT2      3785     TIP3     H1       HT       0.417000        1.0080           0
     32196 WT2      3785     TIP3     H2       HT       0.417000        1.0080           0
     32197 WT2      3786     TIP3     OH2      OT      -0.834000       15.9994           0
     32198 WT2      3786     TIP3     H1       HT       0.417000        1.0080           0
     32199 WT2      3786     TIP3     H2       HT       0.417000        1.0080           0
     32200 WT2      3790     TIP3     OH2      OT      -0.834000       15.9994           0
     32201 WT2      3790     TIP3     H1       HT       0.417000        1.0080           0
     32202 WT2      3790     TIP3     H2       HT       0.417000        1.0080           0
     32203 WT2      3798     TIP3     OH2      OT      -0.834000       15.9994           0
     32204 WT2      3798     TIP3     H1       HT       0.417000        1.0080           0
     32205 WT2      3798     TIP3     H2       HT       0.417000        1.0080           0
     32206 WT2      3800     TIP3     OH2      OT      -0.834000       15.9994           0
     32207 WT2      3800     TIP3     H1       HT       0.417000        1.0080           0
     32208 WT2      3800     TIP3     H2       HT       0.417000        1.0080           0
     32209 WT2      3801     TIP3     OH2      OT      -0.834000       15.9994           0
     32210 WT2      3801     TIP3     H1       HT       0.417000        1.0080           0
     32211 WT2      3801     TIP3     H2       HT       0.417000        1.0080           0
     32212 WT2      3802     TIP3     OH2      OT      -0.834000       15.9994           0
     32213 WT2      3802     TIP3     H1       HT       0.417000        1.0080           0
     32214 WT2      3802     TIP3     H2       HT       0.417000        1.0080           0
     32215 WT2      3804     TIP3     OH2      OT      -0.834000       15.9994           0
     32216 WT2      3804     TIP3     H1       HT       0.417000        1.0080           0
     32217 WT2      3804     TIP3     H2       HT       0.417000        1.0080           0
     32218 WT2      3805     TIP3     OH2      OT      -0.834000       15.9994           0
     32219 WT2      3805     TIP3     H1       HT       0.417000        1.0080           0
     32220 WT2      3805     TIP3     H2       HT       0.417000        1.0080           0
     32221 WT2      3806     TIP3     OH2      OT      -0.834000       15.9994           0
     32222 WT2      3806     TIP3     H1       HT       0.417000        1.0080           0
     32223 WT2      3806     TIP3     H2       HT       0.417000        1.0080           0
     32224 WT2      3807     TIP3     OH2      OT      -0.834000       15.9994           0
     32225 WT2      3807     TIP3     H1       HT       0.417000        1.0080           0
     32226 WT2      3807     TIP3     H2       HT       0.417000        1.0080           0
     32227 WT2      3808     TIP3     OH2      OT      -0.834000       15.9994           0
     32228 WT2      3808     TIP3     H1       HT       0.417000        1.0080           0
     32229 WT2      3808     TIP3     H2       HT       0.417000        1.0080           0
     32230 WT2      3809     TIP3     OH2      OT      -0.834000       15.9994           0
     32231 WT2      3809     TIP3     H1       HT       0.417000        1.0080           0
     32232 WT2      3809     TIP3     H2       HT       0.417000        1.0080           0
     32233 WT2      3821     TIP3     OH2      OT      -0.834000       15.9994           0
     32234 WT2      3821     TIP3     H1       HT       0.417000        1.0080           0
     32235 WT2      3821     TIP3     H2       HT       0.417000        1.0080           0
     32236 WT2      3823     TIP3     OH2      OT      -0.834000       15.9994           0
     32237 WT2      3823     TIP3     H1       HT       0.417000        1.0080           0
     32238 WT2      3823     TIP3     H2       HT       0.417000        1.0080           0
     32239 WT2      3826     TIP3     OH2      OT      -0.834000       15.9994           0
     32240 WT2      3826     TIP3     H1       HT       0.417000        1.0080           0
     32241 WT2      3826     TIP3     H2       HT       0.417000        1.0080           0
     32242 WT2      3827     TIP3     OH2      OT      -0.834000       15.9994           0
     32243 WT2      3827     TIP3     H1       HT       0.417000        1.0080           0
     32244 WT2      3827     TIP3     H2       HT       0.417000        1.0080           0
     32245 WT2      3828     TIP3     OH2      OT      -0.834000       15.9994           0
     32246 WT2      3828     TIP3     H1       HT       0.417000        1.0080           0
     32247 WT2      3828     TIP3     H2       HT       0.417000        1.0080           0
     32248 WT2      3829     TIP3     OH2      OT      -0.834000       15.9994           0
     32249 WT2      3829     TIP3     H1       HT       0.417000        1.0080           0
     32250 WT2      3829     TIP3     H2       HT       0.417000        1.0080           0
     32251 WT2      3842     TIP3     OH2      OT      -0.834000       15.9994           0
     32252 WT2      3842     TIP3     H1       HT       0.417000        1.0080           0
     32253 WT2      3842     TIP3     H2       HT       0.417000        1.0080           0
     32254 WT2      3845     TIP3     OH2      OT      -0.834000       15.9994           0
     32255 WT2      3845     TIP3     H1       HT       0.417000        1.0080           0
     32256 WT2      3845     TIP3     H2       HT       0.417000        1.0080           0
     32257 WT2      3846     TIP3     OH2      OT      -0.834000       15.9994           0
     32258 WT2      3846     TIP3     H1       HT       0.417000        1.0080           0
     32259 WT2      3846     TIP3     H2       HT       0.417000        1.0080           0
     32260 WT2      3847     TIP3     OH2      OT      -0.834000       15.9994           0
     32261 WT2      3847     TIP3     H1       HT       0.417000        1.0080           0
     32262 WT2      3847     TIP3     H2       HT       0.417000        1.0080           0
     32263 WT2      3848     TIP3     OH2      OT      -0.834000       15.9994           0
     32264 WT2      3848     TIP3     H1       HT       0.417000        1.0080           0
     32265 WT2      3848     TIP3     H2       HT       0.417000        1.0080           0
     32266 WT2      3849     TIP3     OH2      OT      -0.834000       15.9994           0
     32267 WT2      3849     TIP3     H1       HT       0.417000        1.0080           0
     32268 WT2      3849     TIP3     H2       HT       0.417000        1.0080           0
     32269 WT2      3852     TIP3     OH2      OT      -0.834000       15.9994           0
     32270 WT2      3852     TIP3     H1       HT       0.417000        1.0080           0
     32271 WT2      3852     TIP3     H2       HT       0.417000        1.0080           0
     32272 WT2      3853     TIP3     OH2      OT      -0.834000       15.9994           0
     32273 WT2      3853     TIP3     H1       HT       0.417000        1.0080           0
     32274 WT2      3853     TIP3     H2       HT       0.417000        1.0080           0
     32275 WT2      3863     TIP3     OH2      OT      -0.834000       15.9994           0
     32276 WT2      3863     TIP3     H1       HT       0.417000        1.0080           0
     32277 WT2      3863     TIP3     H2       HT       0.417000        1.0080           0
     32278 WT2      3865     TIP3     OH2      OT      -0.834000       15.9994           0
     32279 WT2      3865     TIP3     H1       HT       0.417000        1.0080           0
     32280 WT2      3865     TIP3     H2       HT       0.417000        1.0080           0
     32281 WT2      3867     TIP3     OH2      OT      -0.834000       15.9994           0
     32282 WT2      3867     TIP3     H1       HT       0.417000        1.0080           0
     32283 WT2      3867     TIP3     H2       HT       0.417000        1.0080           0
     32284 WT2      3868     TIP3     OH2      OT      -0.834000       15.9994           0
     32285 WT2      3868     TIP3     H1       HT       0.417000        1.0080           0
     32286 WT2      3868     TIP3     H2       HT       0.417000        1.0080           0
     32287 WT2      3869     TIP3     OH2      OT      -0.834000       15.9994           0
     32288 WT2      3869     TIP3     H1       HT       0.417000        1.0080           0
     32289 WT2      3869     TIP3     H2       HT       0.417000        1.0080           0
     32290 WT2      3873     TIP3     OH2      OT      -0.834000       15.9994           0
     32291 WT2      3873     TIP3     H1       HT       0.417000        1.0080           0
     32292 WT2      3873     TIP3     H2       HT       0.417000        1.0080           0
     32293 WT2      3875     TIP3     OH2      OT      -0.834000       15.9994           0
     32294 WT2      3875     TIP3     H1       HT       0.417000        1.0080           0
     32295 WT2      3875     TIP3     H2       HT       0.417000        1.0080           0
     32296 WT2      3882     TIP3     OH2      OT      -0.834000       15.9994           0
     32297 WT2      3882     TIP3     H1       HT       0.417000        1.0080           0
     32298 WT2      3882     TIP3     H2       HT       0.417000        1.0080           0
     32299 WT2      3885     TIP3     OH2      OT      -0.834000       15.9994           0
     32300 WT2      3885     TIP3     H1       HT       0.417000        1.0080           0
     32301 WT2      3885     TIP3     H2       HT       0.417000        1.0080           0
     32302 WT2      3886     TIP3     OH2      OT      -0.834000       15.9994           0
     32303 WT2      3886     TIP3     H1       HT       0.417000        1.0080           0
     32304 WT2      3886     TIP3     H2       HT       0.417000        1.0080           0
     32305 WT2      3888     TIP3     OH2      OT      -0.834000       15.9994           0
     32306 WT2      3888     TIP3     H1       HT       0.417000        1.0080           0
     32307 WT2      3888     TIP3     H2       HT       0.417000        1.0080           0
     32308 WT2      3889     TIP3     OH2      OT      -0.834000       15.9994           0
     32309 WT2      3889     TIP3     H1       HT       0.417000        1.0080           0
     32310 WT2      3889     TIP3     H2       HT       0.417000        1.0080           0
     32311 WT2      3890     TIP3     OH2      OT      -0.834000       15.9994           0
     32312 WT2      3890     TIP3     H1       HT       0.417000        1.0080           0
     32313 WT2      3890     TIP3     H2       HT       0.417000        1.0080           0
     32314 WT2      3891     TIP3     OH2      OT      -0.834000       15.9994           0
     32315 WT2      3891     TIP3     H1       HT       0.417000        1.0080           0
     32316 WT2      3891     TIP3     H2       HT       0.417000        1.0080           0
     32317 WT2      3892     TIP3     OH2      OT      -0.834000       15.9994           0
     32318 WT2      3892     TIP3     H1       HT       0.417000        1.0080           0
     32319 WT2      3892     TIP3     H2       HT       0.417000        1.0080           0
     32320 WT2      3895     TIP3     OH2      OT      -0.834000       15.9994           0
     32321 WT2      3895     TIP3     H1       HT       0.417000        1.0080           0
     32322 WT2      3895     TIP3     H2       HT       0.417000        1.0080           0
     32323 WT2      3907     TIP3     OH2      OT      -0.834000       15.9994           0
     32324 WT2      3907     TIP3     H1       HT       0.417000        1.0080           0
     32325 WT2      3907     TIP3     H2       HT       0.417000        1.0080           0
     32326 WT2      3909     TIP3     OH2      OT      -0.834000       15.9994           0
     32327 WT2      3909     TIP3     H1       HT       0.417000        1.0080           0
     32328 WT2      3909     TIP3     H2       HT       0.417000        1.0080           0
     32329 WT2      3911     TIP3     OH2      OT      -0.834000       15.9994           0
     32330 WT2      3911     TIP3     H1       HT       0.417000        1.0080           0
     32331 WT2      3911     TIP3     H2       HT       0.417000        1.0080           0
     32332 WT2      3912     TIP3     OH2      OT      -0.834000       15.9994           0
     32333 WT2      3912     TIP3     H1       HT       0.417000        1.0080           0
     32334 WT2      3912     TIP3     H2       HT       0.417000        1.0080           0
     32335 WT2      3913     TIP3     OH2      OT      -0.834000       15.9994           0
     32336 WT2      3913     TIP3     H1       HT       0.417000        1.0080           0
     32337 WT2      3913     TIP3     H2       HT       0.417000        1.0080           0
     32338 WT2      3925     TIP3     OH2      OT      -0.834000       15.9994           0
     32339 WT2      3925     TIP3     H1       HT       0.417000        1.0080           0
     32340 WT2      3925     TIP3     H2       HT       0.417000        1.0080           0
     32341 WT2      3927     TIP3     OH2      OT      -0.834000       15.9994           0
     32342 WT2      3927     TIP3     H1       HT       0.417000        1.0080           0
     32343 WT2      3927     TIP3     H2       HT       0.417000        1.0080           0
     32344 WT2      3928     TIP3     OH2      OT      -0.834000       15.9994           0
     32345 WT2      3928     TIP3     H1       HT       0.417000        1.0080           0
     32346 WT2      3928     TIP3     H2       HT       0.417000        1.0080           0
     32347 WT2      3929     TIP3     OH2      OT      -0.834000       15.9994           0
     32348 WT2      3929     TIP3     H1       HT       0.417000        1.0080           0
     32349 WT2      3929     TIP3     H2       HT       0.417000        1.0080           0
     32350 WT2      3930     TIP3     OH2      OT      -0.834000       15.9994           0
     32351 WT2      3930     TIP3     H1       HT       0.417000        1.0080           0
     32352 WT2      3930     TIP3     H2       HT       0.417000        1.0080           0
     32353 WT2      3931     TIP3     OH2      OT      -0.834000       15.9994           0
     32354 WT2      3931     TIP3     H1       HT       0.417000        1.0080           0
     32355 WT2      3931     TIP3     H2       HT       0.417000        1.0080           0
     32356 WT2      3932     TIP3     OH2      OT      -0.834000       15.9994           0
     32357 WT2      3932     TIP3     H1       HT       0.417000        1.0080           0
     32358 WT2      3932     TIP3     H2       HT       0.417000        1.0080           0
     32359 WT2      3933     TIP3     OH2      OT      -0.834000       15.9994           0
     32360 WT2      3933     TIP3     H1       HT       0.417000        1.0080           0
     32361 WT2      3933     TIP3     H2       HT       0.417000        1.0080           0
     32362 WT2      3934     TIP3     OH2      OT      -0.834000       15.9994           0
     32363 WT2      3934     TIP3     H1       HT       0.417000        1.0080           0
     32364 WT2      3934     TIP3     H2       HT       0.417000        1.0080           0
     32365 WT2      3949     TIP3     OH2      OT      -0.834000       15.9994           0
     32366 WT2      3949     TIP3     H1       HT       0.417000        1.0080           0
     32367 WT2      3949     TIP3     H2       HT       0.417000        1.0080           0
     32368 WT2      3951     TIP3     OH2      OT      -0.834000       15.9994           0
     32369 WT2      3951     TIP3     H1       HT       0.417000        1.0080           0
     32370 WT2      3951     TIP3     H2       HT       0.417000        1.0080           0
     32371 WT2      3955     TIP3     OH2      OT      -0.834000       15.9994           0
     32372 WT2      3955     TIP3     H1       HT       0.417000        1.0080           0
     32373 WT2      3955     TIP3     H2       HT       0.417000        1.0080           0
     32374 WT2      3956     TIP3     OH2      OT      -0.834000       15.9994           0
     32375 WT2      3956     TIP3     H1       HT       0.417000        1.0080           0
     32376 WT2      3956     TIP3     H2       HT       0.417000        1.0080           0
     32377 WT2      3971     TIP3     OH2      OT      -0.834000       15.9994           0
     32378 WT2      3971     TIP3     H1       HT       0.417000        1.0080           0
     32379 WT2      3971     TIP3     H2       HT       0.417000        1.0080           0
     32380 WT2      3972     TIP3     OH2      OT      -0.834000       15.9994           0
     32381 WT2      3972     TIP3     H1       HT       0.417000        1.0080           0
     32382 WT2      3972     TIP3     H2       HT       0.417000        1.0080           0
     32383 WT2      3973     TIP3     OH2      OT      -0.834000       15.9994           0
     32384 WT2      3973     TIP3     H1       HT       0.417000        1.0080           0
     32385 WT2      3973     TIP3     H2       HT       0.417000        1.0080           0
     32386 WT2      3974     TIP3     OH2      OT      -0.834000       15.9994           0
     32387 WT2      3974     TIP3     H1       HT       0.417000        1.0080           0
     32388 WT2      3974     TIP3     H2       HT       0.417000        1.0080           0
     32389 WT2      3975     TIP3     OH2      OT      -0.834000       15.9994           0
     32390 WT2      3975     TIP3     H1       HT       0.417000        1.0080           0
     32391 WT2      3975     TIP3     H2       HT       0.417000        1.0080           0
     32392 WT2      3976     TIP3     OH2      OT      -0.834000       15.9994           0
     32393 WT2      3976     TIP3     H1       HT       0.417000        1.0080           0
     32394 WT2      3976     TIP3     H2       HT       0.417000        1.0080           0
     32395 WT2      3977     TIP3     OH2      OT      -0.834000       15.9994           0
     32396 WT2      3977     TIP3     H1       HT       0.417000        1.0080           0
     32397 WT2      3977     TIP3     H2       HT       0.417000        1.0080           0
     32398 WT2      3978     TIP3     OH2      OT      -0.834000       15.9994           0
     32399 WT2      3978     TIP3     H1       HT       0.417000        1.0080           0
     32400 WT2      3978     TIP3     H2       HT       0.417000        1.0080           0
     32401 WT2      3986     TIP3     OH2      OT      -0.834000       15.9994           0
     32402 WT2      3986     TIP3     H1       HT       0.417000        1.0080           0
     32403 WT2      3986     TIP3     H2       HT       0.417000        1.0080           0
     32404 WT2      3991     TIP3     OH2      OT      -0.834000       15.9994           0
     32405 WT2      3991     TIP3     H1       HT       0.417000        1.0080           0
     32406 WT2      3991     TIP3     H2       HT       0.417000        1.0080           0
     32407 WT2      3992     TIP3     OH2      OT      -0.834000       15.9994           0
     32408 WT2      3992     TIP3     H1       HT       0.417000        1.0080           0
     32409 WT2      3992     TIP3     H2       HT       0.417000        1.0080           0
     32410 WT2      3993     TIP3     OH2      OT      -0.834000       15.9994           0
     32411 WT2      3993     TIP3     H1       HT       0.417000        1.0080           0
     32412 WT2      3993     TIP3     H2       HT       0.417000        1.0080           0
     32413 WT2      3994     TIP3     OH2      OT      -0.834000       15.9994           0
     32414 WT2      3994     TIP3     H1       HT       0.417000        1.0080           0
     32415 WT2      3994     TIP3     H2       HT       0.417000        1.0080           0
     32416 WT2      3995     TIP3     OH2      OT      -0.834000       15.9994           0
     32417 WT2      3995     TIP3     H1       HT       0.417000        1.0080           0
     32418 WT2      3995     TIP3     H2       HT       0.417000        1.0080           0
     32419 WT2      3996     TIP3     OH2      OT      -0.834000       15.9994           0
     32420 WT2      3996     TIP3     H1       HT       0.417000        1.0080           0
     32421 WT2      3996     TIP3     H2       HT       0.417000        1.0080           0
     32422 WT2      4009     TIP3     OH2      OT      -0.834000       15.9994           0
     32423 WT2      4009     TIP3     H1       HT       0.417000        1.0080           0
     32424 WT2      4009     TIP3     H2       HT       0.417000        1.0080           0
     32425 WT2      4010     TIP3     OH2      OT      -0.834000       15.9994           0
     32426 WT2      4010     TIP3     H1       HT       0.417000        1.0080           0
     32427 WT2      4010     TIP3     H2       HT       0.417000        1.0080           0
     32428 WT2      4011     TIP3     OH2      OT      -0.834000       15.9994           0
     32429 WT2      4011     TIP3     H1       HT       0.417000        1.0080           0
     32430 WT2      4011     TIP3     H2       HT       0.417000        1.0080           0
     32431 WT2      4012     TIP3     OH2      OT      -0.834000       15.9994           0
     32432 WT2      4012     TIP3     H1       HT       0.417000        1.0080           0
     32433 WT2      4012     TIP3     H2       HT       0.417000        1.0080           0
     32434 WT2      4014     TIP3     OH2      OT      -0.834000       15.9994           0
     32435 WT2      4014     TIP3     H1       HT       0.417000        1.0080           0
     32436 WT2      4014     TIP3     H2       HT       0.417000        1.0080           0
     32437 WT2      4015     TIP3     OH2      OT      -0.834000       15.9994           0
     32438 WT2      4015     TIP3     H1       HT       0.417000        1.0080           0
     32439 WT2      4015     TIP3     H2       HT       0.417000        1.0080           0
     32440 WT2      4016     TIP3     OH2      OT      -0.834000       15.9994           0
     32441 WT2      4016     TIP3     H1       HT       0.417000        1.0080           0
     32442 WT2      4016     TIP3     H2       HT       0.417000        1.0080           0
     32443 WT2      4017     TIP3     OH2      OT      -0.834000       15.9994           0
     32444 WT2      4017     TIP3     H1       HT       0.417000        1.0080           0
     32445 WT2      4017     TIP3     H2       HT       0.417000        1.0080           0
     32446 WT2      4018     TIP3     OH2      OT      -0.834000       15.9994           0
     32447 WT2      4018     TIP3     H1       HT       0.417000        1.0080           0
     32448 WT2      4018     TIP3     H2       HT       0.417000        1.0080           0
     32449 WT2      4021     TIP3     OH2      OT      -0.834000       15.9994           0
     32450 WT2      4021     TIP3     H1       HT       0.417000        1.0080           0
     32451 WT2      4021     TIP3     H2       HT       0.417000        1.0080           0
     32452 WT2      4022     TIP3     OH2      OT      -0.834000       15.9994           0
     32453 WT2      4022     TIP3     H1       HT       0.417000        1.0080           0
     32454 WT2      4022     TIP3     H2       HT       0.417000        1.0080           0
     32455 WT2      4029     TIP3     OH2      OT      -0.834000       15.9994           0
     32456 WT2      4029     TIP3     H1       HT       0.417000        1.0080           0
     32457 WT2      4029     TIP3     H2       HT       0.417000        1.0080           0
     32458 WT2      4030     TIP3     OH2      OT      -0.834000       15.9994           0
     32459 WT2      4030     TIP3     H1       HT       0.417000        1.0080           0
     32460 WT2      4030     TIP3     H2       HT       0.417000        1.0080           0
     32461 WT2      4033     TIP3     OH2      OT      -0.834000       15.9994           0
     32462 WT2      4033     TIP3     H1       HT       0.417000        1.0080           0
     32463 WT2      4033     TIP3     H2       HT       0.417000        1.0080           0
     32464 WT2      4035     TIP3     OH2      OT      -0.834000       15.9994           0
     32465 WT2      4035     TIP3     H1       HT       0.417000        1.0080           0
     32466 WT2      4035     TIP3     H2       HT       0.417000        1.0080           0
     32467 WT2      4036     TIP3     OH2      OT      -0.834000       15.9994           0
     32468 WT2      4036     TIP3     H1       HT       0.417000        1.0080           0
     32469 WT2      4036     TIP3     H2       HT       0.417000        1.0080           0
     32470 WT2      4037     TIP3     OH2      OT      -0.834000       15.9994           0
     32471 WT2      4037     TIP3     H1       HT       0.417000        1.0080           0
     32472 WT2      4037     TIP3     H2       HT       0.417000        1.0080           0
     32473 WT2      4039     TIP3     OH2      OT      -0.834000       15.9994           0
     32474 WT2      4039     TIP3     H1       HT       0.417000        1.0080           0
     32475 WT2      4039     TIP3     H2       HT       0.417000        1.0080           0
     32476 WT2      4040     TIP3     OH2      OT      -0.834000       15.9994           0
     32477 WT2      4040     TIP3     H1       HT       0.417000        1.0080           0
     32478 WT2      4040     TIP3     H2       HT       0.417000        1.0080           0
     32479 WT2      4053     TIP3     OH2      OT      -0.834000       15.9994           0
     32480 WT2      4053     TIP3     H1       HT       0.417000        1.0080           0
     32481 WT2      4053     TIP3     H2       HT       0.417000        1.0080           0
     32482 WT2      4054     TIP3     OH2      OT      -0.834000       15.9994           0
     32483 WT2      4054     TIP3     H1       HT       0.417000        1.0080           0
     32484 WT2      4054     TIP3     H2       HT       0.417000        1.0080           0
     32485 WT2      4055     TIP3     OH2      OT      -0.834000       15.9994           0
     32486 WT2      4055     TIP3     H1       HT       0.417000        1.0080           0
     32487 WT2      4055     TIP3     H2       HT       0.417000        1.0080           0
     32488 WT2      4056     TIP3     OH2      OT      -0.834000       15.9994           0
     32489 WT2      4056     TIP3     H1       HT       0.417000        1.0080           0
     32490 WT2      4056     TIP3     H2       HT       0.417000        1.0080           0
     32491 WT2      4057     TIP3     OH2      OT      -0.834000       15.9994           0
     32492 WT2      4057     TIP3     H1       HT       0.417000        1.0080           0
     32493 WT2      4057     TIP3     H2       HT       0.417000        1.0080           0
     32494 WT2      4058     TIP3     OH2      OT      -0.834000       15.9994           0
     32495 WT2      4058     TIP3     H1       HT       0.417000        1.0080           0
     32496 WT2      4058     TIP3     H2       HT       0.417000        1.0080           0
     32497 WT2      4059     TIP3     OH2      OT      -0.834000       15.9994           0
     32498 WT2      4059     TIP3     H1       HT       0.417000        1.0080           0
     32499 WT2      4059     TIP3     H2       HT       0.417000        1.0080           0
     32500 WT2      4060     TIP3     OH2      OT      -0.834000       15.9994           0
     32501 WT2      4060     TIP3     H1       HT       0.417000        1.0080           0
     32502 WT2      4060     TIP3     H2       HT       0.417000        1.0080           0
     32503 WT2      4064     TIP3     OH2      OT      -0.834000       15.9994           0
     32504 WT2      4064     TIP3     H1       HT       0.417000        1.0080           0
     32505 WT2      4064     TIP3     H2       HT       0.417000        1.0080           0
     32506 WT2      4072     TIP3     OH2      OT      -0.834000       15.9994           0
     32507 WT2      4072     TIP3     H1       HT       0.417000        1.0080           0
     32508 WT2      4072     TIP3     H2       HT       0.417000        1.0080           0
     32509 WT2      4074     TIP3     OH2      OT      -0.834000       15.9994           0
     32510 WT2      4074     TIP3     H1       HT       0.417000        1.0080           0
     32511 WT2      4074     TIP3     H2       HT       0.417000        1.0080           0
     32512 WT2      4076     TIP3     OH2      OT      -0.834000       15.9994           0
     32513 WT2      4076     TIP3     H1       HT       0.417000        1.0080           0
     32514 WT2      4076     TIP3     H2       HT       0.417000        1.0080           0
     32515 WT2      4077     TIP3     OH2      OT      -0.834000       15.9994           0
     32516 WT2      4077     TIP3     H1       HT       0.417000        1.0080           0
     32517 WT2      4077     TIP3     H2       HT       0.417000        1.0080           0
     32518 WT2      4078     TIP3     OH2      OT      -0.834000       15.9994           0
     32519 WT2      4078     TIP3     H1       HT       0.417000        1.0080           0
     32520 WT2      4078     TIP3     H2       HT       0.417000        1.0080           0
     32521 WT2      4081     TIP3     OH2      OT      -0.834000       15.9994           0
     32522 WT2      4081     TIP3     H1       HT       0.417000        1.0080           0
     32523 WT2      4081     TIP3     H2       HT       0.417000        1.0080           0
     32524 WT2      4083     TIP3     OH2      OT      -0.834000       15.9994           0
     32525 WT2      4083     TIP3     H1       HT       0.417000        1.0080           0
     32526 WT2      4083     TIP3     H2       HT       0.417000        1.0080           0
     32527 WT2      4093     TIP3     OH2      OT      -0.834000       15.9994           0
     32528 WT2      4093     TIP3     H1       HT       0.417000        1.0080           0
     32529 WT2      4093     TIP3     H2       HT       0.417000        1.0080           0
     32530 WT2      4094     TIP3     OH2      OT      -0.834000       15.9994           0
     32531 WT2      4094     TIP3     H1       HT       0.417000        1.0080           0
     32532 WT2      4094     TIP3     H2       HT       0.417000        1.0080           0
     32533 WT2      4097     TIP3     OH2      OT      -0.834000       15.9994           0
     32534 WT2      4097     TIP3     H1       HT       0.417000        1.0080           0
     32535 WT2      4097     TIP3     H2       HT       0.417000        1.0080           0
     32536 WT2      4098     TIP3     OH2      OT      -0.834000       15.9994           0
     32537 WT2      4098     TIP3     H1       HT       0.417000        1.0080           0
     32538 WT2      4098     TIP3     H2       HT       0.417000        1.0080           0
     32539 WT2      4099     TIP3     OH2      OT      -0.834000       15.9994           0
     32540 WT2      4099     TIP3     H1       HT       0.417000        1.0080           0
     32541 WT2      4099     TIP3     H2       HT       0.417000        1.0080           0
     32542 WT2      4100     TIP3     OH2      OT      -0.834000       15.9994           0
     32543 WT2      4100     TIP3     H1       HT       0.417000        1.0080           0
     32544 WT2      4100     TIP3     H2       HT       0.417000        1.0080           0
     32545 WT2      4101     TIP3     OH2      OT      -0.834000       15.9994           0
     32546 WT2      4101     TIP3     H1       HT       0.417000        1.0080           0
     32547 WT2      4101     TIP3     H2       HT       0.417000        1.0080           0
     32548 WT2      4104     TIP3     OH2      OT      -0.834000       15.9994           0
     32549 WT2      4104     TIP3     H1       HT       0.417000        1.0080           0
     32550 WT2      4104     TIP3     H2       HT       0.417000        1.0080           0
     32551 WT2      4116     TIP3     OH2      OT      -0.834000       15.9994           0
     32552 WT2      4116     TIP3     H1       HT       0.417000        1.0080           0
     32553 WT2      4116     TIP3     H2       HT       0.417000        1.0080           0
     32554 WT2      4119     TIP3     OH2      OT      -0.834000       15.9994           0
     32555 WT2      4119     TIP3     H1       HT       0.417000        1.0080           0
     32556 WT2      4119     TIP3     H2       HT       0.417000        1.0080           0
     32557 WT2      4120     TIP3     OH2      OT      -0.834000       15.9994           0
     32558 WT2      4120     TIP3     H1       HT       0.417000        1.0080           0
     32559 WT2      4120     TIP3     H2       HT       0.417000        1.0080           0
     32560 WT2      4121     TIP3     OH2      OT      -0.834000       15.9994           0
     32561 WT2      4121     TIP3     H1       HT       0.417000        1.0080           0
     32562 WT2      4121     TIP3     H2       HT       0.417000        1.0080           0
     32563 WT2      4138     TIP3     OH2      OT      -0.834000       15.9994           0
     32564 WT2      4138     TIP3     H1       HT       0.417000        1.0080           0
     32565 WT2      4138     TIP3     H2       HT       0.417000        1.0080           0
     32566 WT2      4139     TIP3     OH2      OT      -0.834000       15.9994           0
     32567 WT2      4139     TIP3     H1       HT       0.417000        1.0080           0
     32568 WT2      4139     TIP3     H2       HT       0.417000        1.0080           0
     32569 WT2      4140     TIP3     OH2      OT      -0.834000       15.9994           0
     32570 WT2      4140     TIP3     H1       HT       0.417000        1.0080           0
     32571 WT2      4140     TIP3     H2       HT       0.417000        1.0080           0
     32572 WT2      4141     TIP3     OH2      OT      -0.834000       15.9994           0
     32573 WT2      4141     TIP3     H1       HT       0.417000        1.0080           0
     32574 WT2      4141     TIP3     H2       HT       0.417000        1.0080           0
     32575 WT2      4142     TIP3     OH2      OT      -0.834000       15.9994           0
     32576 WT2      4142     TIP3     H1       HT       0.417000        1.0080           0
     32577 WT2      4142     TIP3     H2       HT       0.417000        1.0080           0
     32578 WT2      4143     TIP3     OH2      OT      -0.834000       15.9994           0
     32579 WT2      4143     TIP3     H1       HT       0.417000        1.0080           0
     32580 WT2      4143     TIP3     H2       HT       0.417000        1.0080           0
     32581 WT2      4144     TIP3     OH2      OT      -0.834000       15.9994           0
     32582 WT2      4144     TIP3     H1       HT       0.417000        1.0080           0
     32583 WT2      4144     TIP3     H2       HT       0.417000        1.0080           0
     32584 WT2      4157     TIP3     OH2      OT      -0.834000       15.9994           0
     32585 WT2      4157     TIP3     H1       HT       0.417000        1.0080           0
     32586 WT2      4157     TIP3     H2       HT       0.417000        1.0080           0
     32587 WT2      4158     TIP3     OH2      OT      -0.834000       15.9994           0
     32588 WT2      4158     TIP3     H1       HT       0.417000        1.0080           0
     32589 WT2      4158     TIP3     H2       HT       0.417000        1.0080           0
     32590 WT2      4159     TIP3     OH2      OT      -0.834000       15.9994           0
     32591 WT2      4159     TIP3     H1       HT       0.417000        1.0080           0
     32592 WT2      4159     TIP3     H2       HT       0.417000        1.0080           0
     32593 WT2      4161     TIP3     OH2      OT      -0.834000       15.9994           0
     32594 WT2      4161     TIP3     H1       HT       0.417000        1.0080           0
     32595 WT2      4161     TIP3     H2       HT       0.417000        1.0080           0
     32596 WT2      4165     TIP3     OH2      OT      -0.834000       15.9994           0
     32597 WT2      4165     TIP3     H1       HT       0.417000        1.0080           0
     32598 WT2      4165     TIP3     H2       HT       0.417000        1.0080           0
     32599 WT2      4179     TIP3     OH2      OT      -0.834000       15.9994           0
     32600 WT2      4179     TIP3     H1       HT       0.417000        1.0080           0
     32601 WT2      4179     TIP3     H2       HT       0.417000        1.0080           0
     32602 WT2      4181     TIP3     OH2      OT      -0.834000       15.9994           0
     32603 WT2      4181     TIP3     H1       HT       0.417000        1.0080           0
     32604 WT2      4181     TIP3     H2       HT       0.417000        1.0080           0
     32605 WT2      4182     TIP3     OH2      OT      -0.834000       15.9994           0
     32606 WT2      4182     TIP3     H1       HT       0.417000        1.0080           0
     32607 WT2      4182     TIP3     H2       HT       0.417000        1.0080           0
     32608 WT2      4183     TIP3     OH2      OT      -0.834000       15.9994           0
     32609 WT2      4183     TIP3     H1       HT       0.417000        1.0080           0
     32610 WT2      4183     TIP3     H2       HT       0.417000        1.0080           0
     32611 WT2      4184     TIP3     OH2      OT      -0.834000       15.9994           0
     32612 WT2      4184     TIP3     H1       HT       0.417000        1.0080           0
     32613 WT2      4184     TIP3     H2       HT       0.417000        1.0080           0
     32614 WT2      4186     TIP3     OH2      OT      -0.834000       15.9994           0
     32615 WT2      4186     TIP3     H1       HT       0.417000        1.0080           0
     32616 WT2      4186     TIP3     H2       HT       0.417000        1.0080           0
     32617 WT2      4187     TIP3     OH2      OT      -0.834000       15.9994           0
     32618 WT2      4187     TIP3     H1       HT       0.417000        1.0080           0
     32619 WT2      4187     TIP3     H2       HT       0.417000        1.0080           0
     32620 WT2      4191     TIP3     OH2      OT      -0.834000       15.9994           0
     32621 WT2      4191     TIP3     H1       HT       0.417000        1.0080           0
     32622 WT2      4191     TIP3     H2       HT       0.417000        1.0080           0
     32623 WT2      4194     TIP3     OH2      OT      -0.834000       15.9994           0
     32624 WT2      4194     TIP3     H1       HT       0.417000        1.0080           0
     32625 WT2      4194     TIP3     H2       HT       0.417000        1.0080           0
     32626 WT2      4198     TIP3     OH2      OT      -0.834000       15.9994           0
     32627 WT2      4198     TIP3     H1       HT       0.417000        1.0080           0
     32628 WT2      4198     TIP3     H2       HT       0.417000        1.0080           0
     32629 WT2      4200     TIP3     OH2      OT      -0.834000       15.9994           0
     32630 WT2      4200     TIP3     H1       HT       0.417000        1.0080           0
     32631 WT2      4200     TIP3     H2       HT       0.417000        1.0080           0
     32632 WT2      4201     TIP3     OH2      OT      -0.834000       15.9994           0
     32633 WT2      4201     TIP3     H1       HT       0.417000        1.0080           0
     32634 WT2      4201     TIP3     H2       HT       0.417000        1.0080           0
     32635 WT2      4202     TIP3     OH2      OT      -0.834000       15.9994           0
     32636 WT2      4202     TIP3     H1       HT       0.417000        1.0080           0
     32637 WT2      4202     TIP3     H2       HT       0.417000        1.0080           0
     32638 WT2      4205     TIP3     OH2      OT      -0.834000       15.9994           0
     32639 WT2      4205     TIP3     H1       HT       0.417000        1.0080           0
     32640 WT2      4205     TIP3     H2       HT       0.417000        1.0080           0
     32641 WT2      4206     TIP3     OH2      OT      -0.834000       15.9994           0
     32642 WT2      4206     TIP3     H1       HT       0.417000        1.0080           0
     32643 WT2      4206     TIP3     H2       HT       0.417000        1.0080           0
     32644 WT2      4207     TIP3     OH2      OT      -0.834000       15.9994           0
     32645 WT2      4207     TIP3     H1       HT       0.417000        1.0080           0
     32646 WT2      4207     TIP3     H2       HT       0.417000        1.0080           0
     32647 WT2      4218     TIP3     OH2      OT      -0.834000       15.9994           0
     32648 WT2      4218     TIP3     H1       HT       0.417000        1.0080           0
     32649 WT2      4218     TIP3     H2       HT       0.417000        1.0080           0
     32650 WT2      4219     TIP3     OH2      OT      -0.834000       15.9994           0
     32651 WT2      4219     TIP3     H1       HT       0.417000        1.0080           0
     32652 WT2      4219     TIP3     H2       HT       0.417000        1.0080           0
     32653 WT2      4224     TIP3     OH2      OT      -0.834000       15.9994           0
     32654 WT2      4224     TIP3     H1       HT       0.417000        1.0080           0
     32655 WT2      4224     TIP3     H2       HT       0.417000        1.0080           0
     32656 WT2      4225     TIP3     OH2      OT      -0.834000       15.9994           0
     32657 WT2      4225     TIP3     H1       HT       0.417000        1.0080           0
     32658 WT2      4225     TIP3     H2       HT       0.417000        1.0080           0
     32659 WT2      4226     TIP3     OH2      OT      -0.834000       15.9994           0
     32660 WT2      4226     TIP3     H1       HT       0.417000        1.0080           0
     32661 WT2      4226     TIP3     H2       HT       0.417000        1.0080           0
     32662 WT2      4227     TIP3     OH2      OT      -0.834000       15.9994           0
     32663 WT2      4227     TIP3     H1       HT       0.417000        1.0080           0
     32664 WT2      4227     TIP3     H2       HT       0.417000        1.0080           0
     32665 WT2      4229     TIP3     OH2      OT      -0.834000       15.9994           0
     32666 WT2      4229     TIP3     H1       HT       0.417000        1.0080           0
     32667 WT2      4229     TIP3     H2       HT       0.417000        1.0080           0
     32668 WT2      4243     TIP3     OH2      OT      -0.834000       15.9994           0
     32669 WT2      4243     TIP3     H1       HT       0.417000        1.0080           0
     32670 WT2      4243     TIP3     H2       HT       0.417000        1.0080           0
     32671 WT2      4244     TIP3     OH2      OT      -0.834000       15.9994           0
     32672 WT2      4244     TIP3     H1       HT       0.417000        1.0080           0
     32673 WT2      4244     TIP3     H2       HT       0.417000        1.0080           0
     32674 WT2      4245     TIP3     OH2      OT      -0.834000       15.9994           0
     32675 WT2      4245     TIP3     H1       HT       0.417000        1.0080           0
     32676 WT2      4245     TIP3     H2       HT       0.417000        1.0080           0
     32677 WT2      4246     TIP3     OH2      OT      -0.834000       15.9994           0
     32678 WT2      4246     TIP3     H1       HT       0.417000        1.0080           0
     32679 WT2      4246     TIP3     H2       HT       0.417000        1.0080           0
     32680 WT2      4247     TIP3     OH2      OT      -0.834000       15.9994           0
     32681 WT2      4247     TIP3     H1       HT       0.417000        1.0080           0
     32682 WT2      4247     TIP3     H2       HT       0.417000        1.0080           0
     32683 WT2      4248     TIP3     OH2      OT      -0.834000       15.9994           0
     32684 WT2      4248     TIP3     H1       HT       0.417000        1.0080           0
     32685 WT2      4248     TIP3     H2       HT       0.417000        1.0080           0
     32686 WT2      4249     TIP3     OH2      OT      -0.834000       15.9994           0
     32687 WT2      4249     TIP3     H1       HT       0.417000        1.0080           0
     32688 WT2      4249     TIP3     H2       HT       0.417000        1.0080           0
     32689 WT2      4251     TIP3     OH2      OT      -0.834000       15.9994           0
     32690 WT2      4251     TIP3     H1       HT       0.417000        1.0080           0
     32691 WT2      4251     TIP3     H2       HT       0.417000        1.0080           0
     32692 WT2      4262     TIP3     OH2      OT      -0.834000       15.9994           0
     32693 WT2      4262     TIP3     H1       HT       0.417000        1.0080           0
     32694 WT2      4262     TIP3     H2       HT       0.417000        1.0080           0
     32695 WT2      4264     TIP3     OH2      OT      -0.834000       15.9994           0
     32696 WT2      4264     TIP3     H1       HT       0.417000        1.0080           0
     32697 WT2      4264     TIP3     H2       HT       0.417000        1.0080           0
     32698 WT2      4266     TIP3     OH2      OT      -0.834000       15.9994           0
     32699 WT2      4266     TIP3     H1       HT       0.417000        1.0080           0
     32700 WT2      4266     TIP3     H2       HT       0.417000        1.0080           0
     32701 WT2      4267     TIP3     OH2      OT      -0.834000       15.9994           0
     32702 WT2      4267     TIP3     H1       HT       0.417000        1.0080           0
     32703 WT2      4267     TIP3     H2       HT       0.417000        1.0080           0
     32704 WT2      4268     TIP3     OH2      OT      -0.834000       15.9994           0
     32705 WT2      4268     TIP3     H1       HT       0.417000        1.0080           0
     32706 WT2      4268     TIP3     H2       HT       0.417000        1.0080           0
     32707 WT2      4269     TIP3     OH2      OT      -0.834000       15.9994           0
     32708 WT2      4269     TIP3     H1       HT       0.417000        1.0080           0
     32709 WT2      4269     TIP3     H2       HT       0.417000        1.0080           0
     32710 WT2      4273     TIP3     OH2      OT      -0.834000       15.9994           0
     32711 WT2      4273     TIP3     H1       HT       0.417000        1.0080           0
     32712 WT2      4273     TIP3     H2       HT       0.417000        1.0080           0
     32713 WT2      4282     TIP3     OH2      OT      -0.834000       15.9994           0
     32714 WT2      4282     TIP3     H1       HT       0.417000        1.0080           0
     32715 WT2      4282     TIP3     H2       HT       0.417000        1.0080           0
     32716 WT2      4283     TIP3     OH2      OT      -0.834000       15.9994           0
     32717 WT2      4283     TIP3     H1       HT       0.417000        1.0080           0
     32718 WT2      4283     TIP3     H2       HT       0.417000        1.0080           0
     32719 WT2      4287     TIP3     OH2      OT      -0.834000       15.9994           0
     32720 WT2      4287     TIP3     H1       HT       0.417000        1.0080           0
     32721 WT2      4287     TIP3     H2       HT       0.417000        1.0080           0
     32722 WT2      4288     TIP3     OH2      OT      -0.834000       15.9994           0
     32723 WT2      4288     TIP3     H1       HT       0.417000        1.0080           0
     32724 WT2      4288     TIP3     H2       HT       0.417000        1.0080           0
     32725 WT2      4289     TIP3     OH2      OT      -0.834000       15.9994           0
     32726 WT2      4289     TIP3     H1       HT       0.417000        1.0080           0
     32727 WT2      4289     TIP3     H2       HT       0.417000        1.0080           0
     32728 WT2      4290     TIP3     OH2      OT      -0.834000       15.9994           0
     32729 WT2      4290     TIP3     H1       HT       0.417000        1.0080           0
     32730 WT2      4290     TIP3     H2       HT       0.417000        1.0080           0
     32731 WT2      4293     TIP3     OH2      OT      -0.834000       15.9994           0
     32732 WT2      4293     TIP3     H1       HT       0.417000        1.0080           0
     32733 WT2      4293     TIP3     H2       HT       0.417000        1.0080           0
     32734 WT2      4297     TIP3     OH2      OT      -0.834000       15.9994           0
     32735 WT2      4297     TIP3     H1       HT       0.417000        1.0080           0
     32736 WT2      4297     TIP3     H2       HT       0.417000        1.0080           0
     32737 WT2      4304     TIP3     OH2      OT      -0.834000       15.9994           0
     32738 WT2      4304     TIP3     H1       HT       0.417000        1.0080           0
     32739 WT2      4304     TIP3     H2       HT       0.417000        1.0080           0
     32740 WT2      4306     TIP3     OH2      OT      -0.834000       15.9994           0
     32741 WT2      4306     TIP3     H1       HT       0.417000        1.0080           0
     32742 WT2      4306     TIP3     H2       HT       0.417000        1.0080           0
     32743 WT2      4307     TIP3     OH2      OT      -0.834000       15.9994           0
     32744 WT2      4307     TIP3     H1       HT       0.417000        1.0080           0
     32745 WT2      4307     TIP3     H2       HT       0.417000        1.0080           0
     32746 WT2      4308     TIP3     OH2      OT      -0.834000       15.9994           0
     32747 WT2      4308     TIP3     H1       HT       0.417000        1.0080           0
     32748 WT2      4308     TIP3     H2       HT       0.417000        1.0080           0
     32749 WT2      4309     TIP3     OH2      OT      -0.834000       15.9994           0
     32750 WT2      4309     TIP3     H1       HT       0.417000        1.0080           0
     32751 WT2      4309     TIP3     H2       HT       0.417000        1.0080           0
     32752 WT2      4311     TIP3     OH2      OT      -0.834000       15.9994           0
     32753 WT2      4311     TIP3     H1       HT       0.417000        1.0080           0
     32754 WT2      4311     TIP3     H2       HT       0.417000        1.0080           0
     32755 WT2      4312     TIP3     OH2      OT      -0.834000       15.9994           0
     32756 WT2      4312     TIP3     H1       HT       0.417000        1.0080           0
     32757 WT2      4312     TIP3     H2       HT       0.417000        1.0080           0
     32758 WT2      4313     TIP3     OH2      OT      -0.834000       15.9994           0
     32759 WT2      4313     TIP3     H1       HT       0.417000        1.0080           0
     32760 WT2      4313     TIP3     H2       HT       0.417000        1.0080           0
     32761 WT2      4321     TIP3     OH2      OT      -0.834000       15.9994           0
     32762 WT2      4321     TIP3     H1       HT       0.417000        1.0080           0
     32763 WT2      4321     TIP3     H2       HT       0.417000        1.0080           0
     32764 WT2      4328     TIP3     OH2      OT      -0.834000       15.9994           0
     32765 WT2      4328     TIP3     H1       HT       0.417000        1.0080           0
     32766 WT2      4328     TIP3     H2       HT       0.417000        1.0080           0
     32767 WT2      4329     TIP3     OH2      OT      -0.834000       15.9994           0
     32768 WT2      4329     TIP3     H1       HT       0.417000        1.0080           0
     32769 WT2      4329     TIP3     H2       HT       0.417000        1.0080           0
     32770 WT2      4330     TIP3     OH2      OT      -0.834000       15.9994           0
     32771 WT2      4330     TIP3     H1       HT       0.417000        1.0080           0
     32772 WT2      4330     TIP3     H2       HT       0.417000        1.0080           0
     32773 WT2      4332     TIP3     OH2      OT      -0.834000       15.9994           0
     32774 WT2      4332     TIP3     H1       HT       0.417000        1.0080           0
     32775 WT2      4332     TIP3     H2       HT       0.417000        1.0080           0
     32776 WT2      4337     TIP3     OH2      OT      -0.834000       15.9994           0
     32777 WT2      4337     TIP3     H1       HT       0.417000        1.0080           0
     32778 WT2      4337     TIP3     H2       HT       0.417000        1.0080           0
     32779 WT2      4349     TIP3     OH2      OT      -0.834000       15.9994           0
     32780 WT2      4349     TIP3     H1       HT       0.417000        1.0080           0
     32781 WT2      4349     TIP3     H2       HT       0.417000        1.0080           0
     32782 WT2      4350     TIP3     OH2      OT      -0.834000       15.9994           0
     32783 WT2      4350     TIP3     H1       HT       0.417000        1.0080           0
     32784 WT2      4350     TIP3     H2       HT       0.417000        1.0080           0
     32785 WT2      4351     TIP3     OH2      OT      -0.834000       15.9994           0
     32786 WT2      4351     TIP3     H1       HT       0.417000        1.0080           0
     32787 WT2      4351     TIP3     H2       HT       0.417000        1.0080           0
     32788 WT2      4352     TIP3     OH2      OT      -0.834000       15.9994           0
     32789 WT2      4352     TIP3     H1       HT       0.417000        1.0080           0
     32790 WT2      4352     TIP3     H2       HT       0.417000        1.0080           0
     32791 WT2      4353     TIP3     OH2      OT      -0.834000       15.9994           0
     32792 WT2      4353     TIP3     H1       HT       0.417000        1.0080           0
     32793 WT2      4353     TIP3     H2       HT       0.417000        1.0080           0
     32794 WT2      4356     TIP3     OH2      OT      -0.834000       15.9994           0
     32795 WT2      4356     TIP3     H1       HT       0.417000        1.0080           0
     32796 WT2      4356     TIP3     H2       HT       0.417000        1.0080           0
     32797 WT2      4357     TIP3     OH2      OT      -0.834000       15.9994           0
     32798 WT2      4357     TIP3     H1       HT       0.417000        1.0080           0
     32799 WT2      4357     TIP3     H2       HT       0.417000        1.0080           0
     32800 WT2      4363     TIP3     OH2      OT      -0.834000       15.9994           0
     32801 WT2      4363     TIP3     H1       HT       0.417000        1.0080           0
     32802 WT2      4363     TIP3     H2       HT       0.417000        1.0080           0
     32803 WT2      4372     TIP3     OH2      OT      -0.834000       15.9994           0
     32804 WT2      4372     TIP3     H1       HT       0.417000        1.0080           0
     32805 WT2      4372     TIP3     H2       HT       0.417000        1.0080           0
     32806 WT2      4373     TIP3     OH2      OT      -0.834000       15.9994           0
     32807 WT2      4373     TIP3     H1       HT       0.417000        1.0080           0
     32808 WT2      4373     TIP3     H2       HT       0.417000        1.0080           0
     32809 WT2      4374     TIP3     OH2      OT      -0.834000       15.9994           0
     32810 WT2      4374     TIP3     H1       HT       0.417000        1.0080           0
     32811 WT2      4374     TIP3     H2       HT       0.417000        1.0080           0
     32812 WT2      4375     TIP3     OH2      OT      -0.834000       15.9994           0
     32813 WT2      4375     TIP3     H1       HT       0.417000        1.0080           0
     32814 WT2      4375     TIP3     H2       HT       0.417000        1.0080           0
     32815 WT2      4387     TIP3     OH2      OT      -0.834000       15.9994           0
     32816 WT2      4387     TIP3     H1       HT       0.417000        1.0080           0
     32817 WT2      4387     TIP3     H2       HT       0.417000        1.0080           0
     32818 WT2      4391     TIP3     OH2      OT      -0.834000       15.9994           0
     32819 WT2      4391     TIP3     H1       HT       0.417000        1.0080           0
     32820 WT2      4391     TIP3     H2       HT       0.417000        1.0080           0
     32821 WT2      4392     TIP3     OH2      OT      -0.834000       15.9994           0
     32822 WT2      4392     TIP3     H1       HT       0.417000        1.0080           0
     32823 WT2      4392     TIP3     H2       HT       0.417000        1.0080           0
     32824 WT2      4393     TIP3     OH2      OT      -0.834000       15.9994           0
     32825 WT2      4393     TIP3     H1       HT       0.417000        1.0080           0
     32826 WT2      4393     TIP3     H2       HT       0.417000        1.0080           0
     32827 WT2      4394     TIP3     OH2      OT      -0.834000       15.9994           0
     32828 WT2      4394     TIP3     H1       HT       0.417000        1.0080           0
     32829 WT2      4394     TIP3     H2       HT       0.417000        1.0080           0
     32830 WT2      4395     TIP3     OH2      OT      -0.834000       15.9994           0
     32831 WT2      4395     TIP3     H1       HT       0.417000        1.0080           0
     32832 WT2      4395     TIP3     H2       HT       0.417000        1.0080           0
     32833 WT2      4399     TIP3     OH2      OT      -0.834000       15.9994           0
     32834 WT2      4399     TIP3     H1       HT       0.417000        1.0080           0
     32835 WT2      4399     TIP3     H2       HT       0.417000        1.0080           0
     32836 WT2      4411     TIP3     OH2      OT      -0.834000       15.9994           0
     32837 WT2      4411     TIP3     H1       HT       0.417000        1.0080           0
     32838 WT2      4411     TIP3     H2       HT       0.417000        1.0080           0
     32839 WT2      4413     TIP3     OH2      OT      -0.834000       15.9994           0
     32840 WT2      4413     TIP3     H1       HT       0.417000        1.0080           0
     32841 WT2      4413     TIP3     H2       HT       0.417000        1.0080           0
     32842 WT2      4414     TIP3     OH2      OT      -0.834000       15.9994           0
     32843 WT2      4414     TIP3     H1       HT       0.417000        1.0080           0
     32844 WT2      4414     TIP3     H2       HT       0.417000        1.0080           0
     32845 WT2      4417     TIP3     OH2      OT      -0.834000       15.9994           0
     32846 WT2      4417     TIP3     H1       HT       0.417000        1.0080           0
     32847 WT2      4417     TIP3     H2       HT       0.417000        1.0080           0
     32848 WT2      4419     TIP3     OH2      OT      -0.834000       15.9994           0
     32849 WT2      4419     TIP3     H1       HT       0.417000        1.0080           0
     32850 WT2      4419     TIP3     H2       HT       0.417000        1.0080           0
     32851 WT2      4432     TIP3     OH2      OT      -0.834000       15.9994           0
     32852 WT2      4432     TIP3     H1       HT       0.417000        1.0080           0
     32853 WT2      4432     TIP3     H2       HT       0.417000        1.0080           0
     32854 WT2      4434     TIP3     OH2      OT      -0.834000       15.9994           0
     32855 WT2      4434     TIP3     H1       HT       0.417000        1.0080           0
     32856 WT2      4434     TIP3     H2       HT       0.417000        1.0080           0
     32857 WT2      4435     TIP3     OH2      OT      -0.834000       15.9994           0
     32858 WT2      4435     TIP3     H1       HT       0.417000        1.0080           0
     32859 WT2      4435     TIP3     H2       HT       0.417000        1.0080           0
     32860 WT2      4437     TIP3     OH2      OT      -0.834000       15.9994           0
     32861 WT2      4437     TIP3     H1       HT       0.417000        1.0080           0
     32862 WT2      4437     TIP3     H2       HT       0.417000        1.0080           0
     32863 WT2      4438     TIP3     OH2      OT      -0.834000       15.9994           0
     32864 WT2      4438     TIP3     H1       HT       0.417000        1.0080           0
     32865 WT2      4438     TIP3     H2       HT       0.417000        1.0080           0
     32866 WT2      4440     TIP3     OH2      OT      -0.834000       15.9994           0
     32867 WT2      4440     TIP3     H1       HT       0.417000        1.0080           0
     32868 WT2      4440     TIP3     H2       HT       0.417000        1.0080           0
     32869 WT2      4452     TIP3     OH2      OT      -0.834000       15.9994           0
     32870 WT2      4452     TIP3     H1       HT       0.417000        1.0080           0
     32871 WT2      4452     TIP3     H2       HT       0.417000        1.0080           0
     32872 WT2      4453     TIP3     OH2      OT      -0.834000       15.9994           0
     32873 WT2      4453     TIP3     H1       HT       0.417000        1.0080           0
     32874 WT2      4453     TIP3     H2       HT       0.417000        1.0080           0
     32875 WT2      4454     TIP3     OH2      OT      -0.834000       15.9994           0
     32876 WT2      4454     TIP3     H1       HT       0.417000        1.0080           0
     32877 WT2      4454     TIP3     H2       HT       0.417000        1.0080           0
     32878 WT2      4455     TIP3     OH2      OT      -0.834000       15.9994           0
     32879 WT2      4455     TIP3     H1       HT       0.417000        1.0080           0
     32880 WT2      4455     TIP3     H2       HT       0.417000        1.0080           0
     32881 WT2      4457     TIP3     OH2      OT      -0.834000       15.9994           0
     32882 WT2      4457     TIP3     H1       HT       0.417000        1.0080           0
     32883 WT2      4457     TIP3     H2       HT       0.417000        1.0080           0
     32884 WT2      4461     TIP3     OH2      OT      -0.834000       15.9994           0
     32885 WT2      4461     TIP3     H1       HT       0.417000        1.0080           0
     32886 WT2      4461     TIP3     H2       HT       0.417000        1.0080           0
     32887 WT2      4473     TIP3     OH2      OT      -0.834000       15.9994           0
     32888 WT2      4473     TIP3     H1       HT       0.417000        1.0080           0
     32889 WT2      4473     TIP3     H2       HT       0.417000        1.0080           0
     32890 WT2      4474     TIP3     OH2      OT      -0.834000       15.9994           0
     32891 WT2      4474     TIP3     H1       HT       0.417000        1.0080           0
     32892 WT2      4474     TIP3     H2       HT       0.417000        1.0080           0
     32893 WT2      4477     TIP3     OH2      OT      -0.834000       15.9994           0
     32894 WT2      4477     TIP3     H1       HT       0.417000        1.0080           0
     32895 WT2      4477     TIP3     H2       HT       0.417000        1.0080           0
     32896 WT2      4478     TIP3     OH2      OT      -0.834000       15.9994           0
     32897 WT2      4478     TIP3     H1       HT       0.417000        1.0080           0
     32898 WT2      4478     TIP3     H2       HT       0.417000        1.0080           0
     32899 WT2      4479     TIP3     OH2      OT      -0.834000       15.9994           0
     32900 WT2      4479     TIP3     H1       HT       0.417000        1.0080           0
     32901 WT2      4479     TIP3     H2       HT       0.417000        1.0080           0
     32902 WT2      4480     TIP3     OH2      OT      -0.834000       15.9994           0
     32903 WT2      4480     TIP3     H1       HT       0.417000        1.0080           0
     32904 WT2      4480     TIP3     H2       HT       0.417000        1.0080           0
     32905 WT2      4481     TIP3     OH2      OT      -0.834000       15.9994           0
     32906 WT2      4481     TIP3     H1       HT       0.417000        1.0080           0
     32907 WT2      4481     TIP3     H2       HT       0.417000        1.0080           0
     32908 WT2      4492     TIP3     OH2      OT      -0.834000       15.9994           0
     32909 WT2      4492     TIP3     H1       HT       0.417000        1.0080           0
     32910 WT2      4492     TIP3     H2       HT       0.417000        1.0080           0
     32911 WT2      4496     TIP3     OH2      OT      -0.834000       15.9994           0
     32912 WT2      4496     TIP3     H1       HT       0.417000        1.0080           0
     32913 WT2      4496     TIP3     H2       HT       0.417000        1.0080           0
     32914 WT2      4497     TIP3     OH2      OT      -0.834000       15.9994           0
     32915 WT2      4497     TIP3     H1       HT       0.417000        1.0080           0
     32916 WT2      4497     TIP3     H2       HT       0.417000        1.0080           0
     32917 WT2      4499     TIP3     OH2      OT      -0.834000       15.9994           0
     32918 WT2      4499     TIP3     H1       HT       0.417000        1.0080           0
     32919 WT2      4499     TIP3     H2       HT       0.417000        1.0080           0
     32920 WT2      4500     TIP3     OH2      OT      -0.834000       15.9994           0
     32921 WT2      4500     TIP3     H1       HT       0.417000        1.0080           0
     32922 WT2      4500     TIP3     H2       HT       0.417000        1.0080           0
     32923 WT2      4501     TIP3     OH2      OT      -0.834000       15.9994           0
     32924 WT2      4501     TIP3     H1       HT       0.417000        1.0080           0
     32925 WT2      4501     TIP3     H2       HT       0.417000        1.0080           0
     32926 WT2      4513     TIP3     OH2      OT      -0.834000       15.9994           0
     32927 WT2      4513     TIP3     H1       HT       0.417000        1.0080           0
     32928 WT2      4513     TIP3     H2       HT       0.417000        1.0080           0
     32929 WT2      4515     TIP3     OH2      OT      -0.834000       15.9994           0
     32930 WT2      4515     TIP3     H1       HT       0.417000        1.0080           0
     32931 WT2      4515     TIP3     H2       HT       0.417000        1.0080           0
     32932 WT2      4516     TIP3     OH2      OT      -0.834000       15.9994           0
     32933 WT2      4516     TIP3     H1       HT       0.417000        1.0080           0
     32934 WT2      4516     TIP3     H2       HT       0.417000        1.0080           0
     32935 WT2      4517     TIP3     OH2      OT      -0.834000       15.9994           0
     32936 WT2      4517     TIP3     H1       HT       0.417000        1.0080           0
     32937 WT2      4517     TIP3     H2       HT       0.417000        1.0080           0
     32938 WT2      4518     TIP3     OH2      OT      -0.834000       15.9994           0
     32939 WT2      4518     TIP3     H1       HT       0.417000        1.0080           0
     32940 WT2      4518     TIP3     H2       HT       0.417000        1.0080           0
     32941 WT2      4519     TIP3     OH2      OT      -0.834000       15.9994           0
     32942 WT2      4519     TIP3     H1       HT       0.417000        1.0080           0
     32943 WT2      4519     TIP3     H2       HT       0.417000        1.0080           0
     32944 WT2      4520     TIP3     OH2      OT      -0.834000       15.9994           0
     32945 WT2      4520     TIP3     H1       HT       0.417000        1.0080           0
     32946 WT2      4520     TIP3     H2       HT       0.417000        1.0080           0
     32947 WT2      4523     TIP3     OH2      OT      -0.834000       15.9994           0
     32948 WT2      4523     TIP3     H1       HT       0.417000        1.0080           0
     32949 WT2      4523     TIP3     H2       HT       0.417000        1.0080           0
     32950 WT2      4524     TIP3     OH2      OT      -0.834000       15.9994           0
     32951 WT2      4524     TIP3     H1       HT       0.417000        1.0080           0
     32952 WT2      4524     TIP3     H2       HT       0.417000        1.0080           0
     32953 WT2      4536     TIP3     OH2      OT      -0.834000       15.9994           0
     32954 WT2      4536     TIP3     H1       HT       0.417000        1.0080           0
     32955 WT2      4536     TIP3     H2       HT       0.417000        1.0080           0
     32956 WT2      4537     TIP3     OH2      OT      -0.834000       15.9994           0
     32957 WT2      4537     TIP3     H1       HT       0.417000        1.0080           0
     32958 WT2      4537     TIP3     H2       HT       0.417000        1.0080           0
     32959 WT2      4538     TIP3     OH2      OT      -0.834000       15.9994           0
     32960 WT2      4538     TIP3     H1       HT       0.417000        1.0080           0
     32961 WT2      4538     TIP3     H2       HT       0.417000        1.0080           0
     32962 WT2      4539     TIP3     OH2      OT      -0.834000       15.9994           0
     32963 WT2      4539     TIP3     H1       HT       0.417000        1.0080           0
     32964 WT2      4539     TIP3     H2       HT       0.417000        1.0080           0
     32965 WT2      4540     TIP3     OH2      OT      -0.834000       15.9994           0
     32966 WT2      4540     TIP3     H1       HT       0.417000        1.0080           0
     32967 WT2      4540     TIP3     H2       HT       0.417000        1.0080           0
     32968 WT2      4542     TIP3     OH2      OT      -0.834000       15.9994           0
     32969 WT2      4542     TIP3     H1       HT       0.417000        1.0080           0
     32970 WT2      4542     TIP3     H2       HT       0.417000        1.0080           0
     32971 WT2      4544     TIP3     OH2      OT      -0.834000       15.9994           0
     32972 WT2      4544     TIP3     H1       HT       0.417000        1.0080           0
     32973 WT2      4544     TIP3     H2       HT       0.417000        1.0080           0
     32974 WT2      4553     TIP3     OH2      OT      -0.834000       15.9994           0
     32975 WT2      4553     TIP3     H1       HT       0.417000        1.0080           0
     32976 WT2      4553     TIP3     H2       HT       0.417000        1.0080           0
     32977 WT2      4558     TIP3     OH2      OT      -0.834000       15.9994           0
     32978 WT2      4558     TIP3     H1       HT       0.417000        1.0080           0
     32979 WT2      4558     TIP3     H2       HT       0.417000        1.0080           0
     32980 WT2      4559     TIP3     OH2      OT      -0.834000       15.9994           0
     32981 WT2      4559     TIP3     H1       HT       0.417000        1.0080           0
     32982 WT2      4559     TIP3     H2       HT       0.417000        1.0080           0
     32983 WT2      4560     TIP3     OH2      OT      -0.834000       15.9994           0
     32984 WT2      4560     TIP3     H1       HT       0.417000        1.0080           0
     32985 WT2      4560     TIP3     H2       HT       0.417000        1.0080           0
     32986 WT2      4561     TIP3     OH2      OT      -0.834000       15.9994           0
     32987 WT2      4561     TIP3     H1       HT       0.417000        1.0080           0
     32988 WT2      4561     TIP3     H2       HT       0.417000        1.0080           0
     32989 WT2      4562     TIP3     OH2      OT      -0.834000       15.9994           0
     32990 WT2      4562     TIP3     H1       HT       0.417000        1.0080           0
     32991 WT2      4562     TIP3     H2       HT       0.417000        1.0080           0
     32992 WT2      4563     TIP3     OH2      OT      -0.834000       15.9994           0
     32993 WT2      4563     TIP3     H1       HT       0.417000        1.0080           0
     32994 WT2      4563     TIP3     H2       HT       0.417000        1.0080           0
     32995 WT2      4564     TIP3     OH2      OT      -0.834000       15.9994           0
     32996 WT2      4564     TIP3     H1       HT       0.417000        1.0080           0
     32997 WT2      4564     TIP3     H2       HT       0.417000        1.0080           0
     32998 WT2      4565     TIP3     OH2      OT      -0.834000       15.9994           0
     32999 WT2      4565     TIP3     H1       HT       0.417000        1.0080           0
     33000 WT2      4565     TIP3     H2       HT       0.417000        1.0080           0
     33001 WT2      4569     TIP3     OH2      OT      -0.834000       15.9994           0
     33002 WT2      4569     TIP3     H1       HT       0.417000        1.0080           0
     33003 WT2      4569     TIP3     H2       HT       0.417000        1.0080           0
     33004 WT2      4578     TIP3     OH2      OT      -0.834000       15.9994           0
     33005 WT2      4578     TIP3     H1       HT       0.417000        1.0080           0
     33006 WT2      4578     TIP3     H2       HT       0.417000        1.0080           0
     33007 WT2      4581     TIP3     OH2      OT      -0.834000       15.9994           0
     33008 WT2      4581     TIP3     H1       HT       0.417000        1.0080           0
     33009 WT2      4581     TIP3     H2       HT       0.417000        1.0080           0
     33010 WT2      4582     TIP3     OH2      OT      -0.834000       15.9994           0
     33011 WT2      4582     TIP3     H1       HT       0.417000        1.0080           0
     33012 WT2      4582     TIP3     H2       HT       0.417000        1.0080           0
     33013 WT2      4584     TIP3     OH2      OT      -0.834000       15.9994           0
     33014 WT2      4584     TIP3     H1       HT       0.417000        1.0080           0
     33015 WT2      4584     TIP3     H2       HT       0.417000        1.0080           0
     33016 WT2      4586     TIP3     OH2      OT      -0.834000       15.9994           0
     33017 WT2      4586     TIP3     H1       HT       0.417000        1.0080           0
     33018 WT2      4586     TIP3     H2       HT       0.417000        1.0080           0
     33019 WT2      4588     TIP3     OH2      OT      -0.834000       15.9994           0
     33020 WT2      4588     TIP3     H1       HT       0.417000        1.0080           0
     33021 WT2      4588     TIP3     H2       HT       0.417000        1.0080           0
     33022 WT2      4599     TIP3     OH2      OT      -0.834000       15.9994           0
     33023 WT2      4599     TIP3     H1       HT       0.417000        1.0080           0
     33024 WT2      4599     TIP3     H2       HT       0.417000        1.0080           0
     33025 WT2      4600     TIP3     OH2      OT      -0.834000       15.9994           0
     33026 WT2      4600     TIP3     H1       HT       0.417000        1.0080           0
     33027 WT2      4600     TIP3     H2       HT       0.417000        1.0080           0
     33028 WT2      4602     TIP3     OH2      OT      -0.834000       15.9994           0
     33029 WT2      4602     TIP3     H1       HT       0.417000        1.0080           0
     33030 WT2      4602     TIP3     H2       HT       0.417000        1.0080           0
     33031 WT2      4603     TIP3     OH2      OT      -0.834000       15.9994           0
     33032 WT2      4603     TIP3     H1       HT       0.417000        1.0080           0
     33033 WT2      4603     TIP3     H2       HT       0.417000        1.0080           0
     33034 WT2      4605     TIP3     OH2      OT      -0.834000       15.9994           0
     33035 WT2      4605     TIP3     H1       HT       0.417000        1.0080           0
     33036 WT2      4605     TIP3     H2       HT       0.417000        1.0080           0
     33037 WT2      4606     TIP3     OH2      OT      -0.834000       15.9994           0
     33038 WT2      4606     TIP3     H1       HT       0.417000        1.0080           0
     33039 WT2      4606     TIP3     H2       HT       0.417000        1.0080           0
     33040 WT2      4621     TIP3     OH2      OT      -0.834000       15.9994           0
     33041 WT2      4621     TIP3     H1       HT       0.417000        1.0080           0
     33042 WT2      4621     TIP3     H2       HT       0.417000        1.0080           0
     33043 WT2      4622     TIP3     OH2      OT      -0.834000       15.9994           0
     33044 WT2      4622     TIP3     H1       HT       0.417000        1.0080           0
     33045 WT2      4622     TIP3     H2       HT       0.417000        1.0080           0
     33046 WT2      4623     TIP3     OH2      OT      -0.834000       15.9994           0
     33047 WT2      4623     TIP3     H1       HT       0.417000        1.0080           0
     33048 WT2      4623     TIP3     H2       HT       0.417000        1.0080           0
     33049 WT2      4624     TIP3     OH2      OT      -0.834000       15.9994           0
     33050 WT2      4624     TIP3     H1       HT       0.417000        1.0080           0
     33051 WT2      4624     TIP3     H2       HT       0.417000        1.0080           0
     33052 WT2      4625     TIP3     OH2      OT      -0.834000       15.9994           0
     33053 WT2      4625     TIP3     H1       HT       0.417000        1.0080           0
     33054 WT2      4625     TIP3     H2       HT       0.417000        1.0080           0
     33055 WT2      4627     TIP3     OH2      OT      -0.834000       15.9994           0
     33056 WT2      4627     TIP3     H1       HT       0.417000        1.0080           0
     33057 WT2      4627     TIP3     H2       HT       0.417000        1.0080           0
     33058 WT2      4628     TIP3     OH2      OT      -0.834000       15.9994           0
     33059 WT2      4628     TIP3     H1       HT       0.417000        1.0080           0
     33060 WT2      4628     TIP3     H2       HT       0.417000        1.0080           0
     33061 WT2      4629     TIP3     OH2      OT      -0.834000       15.9994           0
     33062 WT2      4629     TIP3     H1       HT       0.417000        1.0080           0
     33063 WT2      4629     TIP3     H2       HT       0.417000        1.0080           0
     33064 WT2      4641     TIP3     OH2      OT      -0.834000       15.9994           0
     33065 WT2      4641     TIP3     H1       HT       0.417000        1.0080           0
     33066 WT2      4641     TIP3     H2       HT       0.417000        1.0080           0
     33067 WT2      4643     TIP3     OH2      OT      -0.834000       15.9994           0
     33068 WT2      4643     TIP3     H1       HT       0.417000        1.0080           0
     33069 WT2      4643     TIP3     H2       HT       0.417000        1.0080           0
     33070 WT2      4644     TIP3     OH2      OT      -0.834000       15.9994           0
     33071 WT2      4644     TIP3     H1       HT       0.417000        1.0080           0
     33072 WT2      4644     TIP3     H2       HT       0.417000        1.0080           0
     33073 WT2      4645     TIP3     OH2      OT      -0.834000       15.9994           0
     33074 WT2      4645     TIP3     H1       HT       0.417000        1.0080           0
     33075 WT2      4645     TIP3     H2       HT       0.417000        1.0080           0
     33076 WT2      4647     TIP3     OH2      OT      -0.834000       15.9994           0
     33077 WT2      4647     TIP3     H1       HT       0.417000        1.0080           0
     33078 WT2      4647     TIP3     H2       HT       0.417000        1.0080           0
     33079 WT2      4648     TIP3     OH2      OT      -0.834000       15.9994           0
     33080 WT2      4648     TIP3     H1       HT       0.417000        1.0080           0
     33081 WT2      4648     TIP3     H2       HT       0.417000        1.0080           0
     33082 WT2      4661     TIP3     OH2      OT      -0.834000       15.9994           0
     33083 WT2      4661     TIP3     H1       HT       0.417000        1.0080           0
     33084 WT2      4661     TIP3     H2       HT       0.417000        1.0080           0
     33085 WT2      4663     TIP3     OH2      OT      -0.834000       15.9994           0
     33086 WT2      4663     TIP3     H1       HT       0.417000        1.0080           0
     33087 WT2      4663     TIP3     H2       HT       0.417000        1.0080           0
     33088 WT2      4664     TIP3     OH2      OT      -0.834000       15.9994           0
     33089 WT2      4664     TIP3     H1       HT       0.417000        1.0080           0
     33090 WT2      4664     TIP3     H2       HT       0.417000        1.0080           0
     33091 WT2      4665     TIP3     OH2      OT      -0.834000       15.9994           0
     33092 WT2      4665     TIP3     H1       HT       0.417000        1.0080           0
     33093 WT2      4665     TIP3     H2       HT       0.417000        1.0080           0
     33094 WT2      4666     TIP3     OH2      OT      -0.834000       15.9994           0
     33095 WT2      4666     TIP3     H1       HT       0.417000        1.0080           0
     33096 WT2      4666     TIP3     H2       HT       0.417000        1.0080           0
     33097 WT2      4667     TIP3     OH2      OT      -0.834000       15.9994           0
     33098 WT2      4667     TIP3     H1       HT       0.417000        1.0080           0
     33099 WT2      4667     TIP3     H2       HT       0.417000        1.0080           0
     33100 WT2      4668     TIP3     OH2      OT      -0.834000       15.9994           0
     33101 WT2      4668     TIP3     H1       HT       0.417000        1.0080           0
     33102 WT2      4668     TIP3     H2       HT       0.417000        1.0080           0
     33103 WT2      4670     TIP3     OH2      OT      -0.834000       15.9994           0
     33104 WT2      4670     TIP3     H1       HT       0.417000        1.0080           0
     33105 WT2      4670     TIP3     H2       HT       0.417000        1.0080           0
     33106 WT2      4673     TIP3     OH2      OT      -0.834000       15.9994           0
     33107 WT2      4673     TIP3     H1       HT       0.417000        1.0080           0
     33108 WT2      4673     TIP3     H2       HT       0.417000        1.0080           0
     33109 WT2      4675     TIP3     OH2      OT      -0.834000       15.9994           0
     33110 WT2      4675     TIP3     H1       HT       0.417000        1.0080           0
     33111 WT2      4675     TIP3     H2       HT       0.417000        1.0080           0
     33112 WT2      4685     TIP3     OH2      OT      -0.834000       15.9994           0
     33113 WT2      4685     TIP3     H1       HT       0.417000        1.0080           0
     33114 WT2      4685     TIP3     H2       HT       0.417000        1.0080           0
     33115 WT2      4686     TIP3     OH2      OT      -0.834000       15.9994           0
     33116 WT2      4686     TIP3     H1       HT       0.417000        1.0080           0
     33117 WT2      4686     TIP3     H2       HT       0.417000        1.0080           0
     33118 WT2      4687     TIP3     OH2      OT      -0.834000       15.9994           0
     33119 WT2      4687     TIP3     H1       HT       0.417000        1.0080           0
     33120 WT2      4687     TIP3     H2       HT       0.417000        1.0080           0
     33121 WT2      4689     TIP3     OH2      OT      -0.834000       15.9994           0
     33122 WT2      4689     TIP3     H1       HT       0.417000        1.0080           0
     33123 WT2      4689     TIP3     H2       HT       0.417000        1.0080           0
     33124 WT2      4690     TIP3     OH2      OT      -0.834000       15.9994           0
     33125 WT2      4690     TIP3     H1       HT       0.417000        1.0080           0
     33126 WT2      4690     TIP3     H2       HT       0.417000        1.0080           0
     33127 WT2      4694     TIP3     OH2      OT      -0.834000       15.9994           0
     33128 WT2      4694     TIP3     H1       HT       0.417000        1.0080           0
     33129 WT2      4694     TIP3     H2       HT       0.417000        1.0080           0
     33130 WT2      4704     TIP3     OH2      OT      -0.834000       15.9994           0
     33131 WT2      4704     TIP3     H1       HT       0.417000        1.0080           0
     33132 WT2      4704     TIP3     H2       HT       0.417000        1.0080           0
     33133 WT2      4705     TIP3     OH2      OT      -0.834000       15.9994           0
     33134 WT2      4705     TIP3     H1       HT       0.417000        1.0080           0
     33135 WT2      4705     TIP3     H2       HT       0.417000        1.0080           0
     33136 WT2      4706     TIP3     OH2      OT      -0.834000       15.9994           0
     33137 WT2      4706     TIP3     H1       HT       0.417000        1.0080           0
     33138 WT2      4706     TIP3     H2       HT       0.417000        1.0080           0
     33139 WT2      4707     TIP3     OH2      OT      -0.834000       15.9994           0
     33140 WT2      4707     TIP3     H1       HT       0.417000        1.0080           0
     33141 WT2      4707     TIP3     H2       HT       0.417000        1.0080           0
     33142 WT2      4708     TIP3     OH2      OT      -0.834000       15.9994           0
     33143 WT2      4708     TIP3     H1       HT       0.417000        1.0080           0
     33144 WT2      4708     TIP3     H2       HT       0.417000        1.0080           0
     33145 WT2      4710     TIP3     OH2      OT      -0.834000       15.9994           0
     33146 WT2      4710     TIP3     H1       HT       0.417000        1.0080           0
     33147 WT2      4710     TIP3     H2       HT       0.417000        1.0080           0
     33148 WT2      4713     TIP3     OH2      OT      -0.834000       15.9994           0
     33149 WT2      4713     TIP3     H1       HT       0.417000        1.0080           0
     33150 WT2      4713     TIP3     H2       HT       0.417000        1.0080           0
     33151 WT2      4725     TIP3     OH2      OT      -0.834000       15.9994           0
     33152 WT2      4725     TIP3     H1       HT       0.417000        1.0080           0
     33153 WT2      4725     TIP3     H2       HT       0.417000        1.0080           0
     33154 WT2      4727     TIP3     OH2      OT      -0.834000       15.9994           0
     33155 WT2      4727     TIP3     H1       HT       0.417000        1.0080           0
     33156 WT2      4727     TIP3     H2       HT       0.417000        1.0080           0
     33157 WT2      4729     TIP3     OH2      OT      -0.834000       15.9994           0
     33158 WT2      4729     TIP3     H1       HT       0.417000        1.0080           0
     33159 WT2      4729     TIP3     H2       HT       0.417000        1.0080           0
     33160 WT2      4732     TIP3     OH2      OT      -0.834000       15.9994           0
     33161 WT2      4732     TIP3     H1       HT       0.417000        1.0080           0
     33162 WT2      4732     TIP3     H2       HT       0.417000        1.0080           0
     33163 WT2      4748     TIP3     OH2      OT      -0.834000       15.9994           0
     33164 WT2      4748     TIP3     H1       HT       0.417000        1.0080           0
     33165 WT2      4748     TIP3     H2       HT       0.417000        1.0080           0
     33166 WT2      4750     TIP3     OH2      OT      -0.834000       15.9994           0
     33167 WT2      4750     TIP3     H1       HT       0.417000        1.0080           0
     33168 WT2      4750     TIP3     H2       HT       0.417000        1.0080           0
     33169 WT2      4751     TIP3     OH2      OT      -0.834000       15.9994           0
     33170 WT2      4751     TIP3     H1       HT       0.417000        1.0080           0
     33171 WT2      4751     TIP3     H2       HT       0.417000        1.0080           0
     33172 WT2      4759     TIP3     OH2      OT      -0.834000       15.9994           0
     33173 WT2      4759     TIP3     H1       HT       0.417000        1.0080           0
     33174 WT2      4759     TIP3     H2       HT       0.417000        1.0080           0
     33175 WT2      4767     TIP3     OH2      OT      -0.834000       15.9994           0
     33176 WT2      4767     TIP3     H1       HT       0.417000        1.0080           0
     33177 WT2      4767     TIP3     H2       HT       0.417000        1.0080           0
     33178 WT2      4768     TIP3     OH2      OT      -0.834000       15.9994           0
     33179 WT2      4768     TIP3     H1       HT       0.417000        1.0080           0
     33180 WT2      4768     TIP3     H2       HT       0.417000        1.0080           0
     33181 WT2      4770     TIP3     OH2      OT      -0.834000       15.9994           0
     33182 WT2      4770     TIP3     H1       HT       0.417000        1.0080           0
     33183 WT2      4770     TIP3     H2       HT       0.417000        1.0080           0
     33184 WT2      4773     TIP3     OH2      OT      -0.834000       15.9994           0
     33185 WT2      4773     TIP3     H1       HT       0.417000        1.0080           0
     33186 WT2      4773     TIP3     H2       HT       0.417000        1.0080           0
     33187 WT2      4774     TIP3     OH2      OT      -0.834000       15.9994           0
     33188 WT2      4774     TIP3     H1       HT       0.417000        1.0080           0
     33189 WT2      4774     TIP3     H2       HT       0.417000        1.0080           0
     33190 WT2      4787     TIP3     OH2      OT      -0.834000       15.9994           0
     33191 WT2      4787     TIP3     H1       HT       0.417000        1.0080           0
     33192 WT2      4787     TIP3     H2       HT       0.417000        1.0080           0
     33193 WT2      4788     TIP3     OH2      OT      -0.834000       15.9994           0
     33194 WT2      4788     TIP3     H1       HT       0.417000        1.0080           0
     33195 WT2      4788     TIP3     H2       HT       0.417000        1.0080           0
     33196 WT2      4790     TIP3     OH2      OT      -0.834000       15.9994           0
     33197 WT2      4790     TIP3     H1       HT       0.417000        1.0080           0
     33198 WT2      4790     TIP3     H2       HT       0.417000        1.0080           0
     33199 WT2      4791     TIP3     OH2      OT      -0.834000       15.9994           0
     33200 WT2      4791     TIP3     H1       HT       0.417000        1.0080           0
     33201 WT2      4791     TIP3     H2       HT       0.417000        1.0080           0
     33202 WT2      4792     TIP3     OH2      OT      -0.834000       15.9994           0
     33203 WT2      4792     TIP3     H1       HT       0.417000        1.0080           0
     33204 WT2      4792     TIP3     H2       HT       0.417000        1.0080           0
     33205 WT2      4793     TIP3     OH2      OT      -0.834000       15.9994           0
     33206 WT2      4793     TIP3     H1       HT       0.417000        1.0080           0
     33207 WT2      4793     TIP3     H2       HT       0.417000        1.0080           0
     33208 WT2      4794     TIP3     OH2      OT      -0.834000       15.9994           0
     33209 WT2      4794     TIP3     H1       HT       0.417000        1.0080           0
     33210 WT2      4794     TIP3     H2       HT       0.417000        1.0080           0
     33211 WT2      4797     TIP3     OH2      OT      -0.834000       15.9994           0
     33212 WT2      4797     TIP3     H1       HT       0.417000        1.0080           0
     33213 WT2      4797     TIP3     H2       HT       0.417000        1.0080           0
     33214 WT2      4798     TIP3     OH2      OT      -0.834000       15.9994           0
     33215 WT2      4798     TIP3     H1       HT       0.417000        1.0080           0
     33216 WT2      4798     TIP3     H2       HT       0.417000        1.0080           0
     33217 WT2      4806     TIP3     OH2      OT      -0.834000       15.9994           0
     33218 WT2      4806     TIP3     H1       HT       0.417000        1.0080           0
     33219 WT2      4806     TIP3     H2       HT       0.417000        1.0080           0
     33220 WT2      4808     TIP3     OH2      OT      -0.834000       15.9994           0
     33221 WT2      4808     TIP3     H1       HT       0.417000        1.0080           0
     33222 WT2      4808     TIP3     H2       HT       0.417000        1.0080           0
     33223 WT2      4809     TIP3     OH2      OT      -0.834000       15.9994           0
     33224 WT2      4809     TIP3     H1       HT       0.417000        1.0080           0
     33225 WT2      4809     TIP3     H2       HT       0.417000        1.0080           0
     33226 WT2      4811     TIP3     OH2      OT      -0.834000       15.9994           0
     33227 WT2      4811     TIP3     H1       HT       0.417000        1.0080           0
     33228 WT2      4811     TIP3     H2       HT       0.417000        1.0080           0
     33229 WT2      4812     TIP3     OH2      OT      -0.834000       15.9994           0
     33230 WT2      4812     TIP3     H1       HT       0.417000        1.0080           0
     33231 WT2      4812     TIP3     H2       HT       0.417000        1.0080           0
     33232 WT2      4813     TIP3     OH2      OT      -0.834000       15.9994           0
     33233 WT2      4813     TIP3     H1       HT       0.417000        1.0080           0
     33234 WT2      4813     TIP3     H2       HT       0.417000        1.0080           0
     33235 WT2      4814     TIP3     OH2      OT      -0.834000       15.9994           0
     33236 WT2      4814     TIP3     H1       HT       0.417000        1.0080           0
     33237 WT2      4814     TIP3     H2       HT       0.417000        1.0080           0
     33238 WT2      4816     TIP3     OH2      OT      -0.834000       15.9994           0
     33239 WT2      4816     TIP3     H1       HT       0.417000        1.0080           0
     33240 WT2      4816     TIP3     H2       HT       0.417000        1.0080           0
     33241 WT2      4820     TIP3     OH2      OT      -0.834000       15.9994           0
     33242 WT2      4820     TIP3     H1       HT       0.417000        1.0080           0
     33243 WT2      4820     TIP3     H2       HT       0.417000        1.0080           0
     33244 WT2      4832     TIP3     OH2      OT      -0.834000       15.9994           0
     33245 WT2      4832     TIP3     H1       HT       0.417000        1.0080           0
     33246 WT2      4832     TIP3     H2       HT       0.417000        1.0080           0
     33247 WT2      4833     TIP3     OH2      OT      -0.834000       15.9994           0
     33248 WT2      4833     TIP3     H1       HT       0.417000        1.0080           0
     33249 WT2      4833     TIP3     H2       HT       0.417000        1.0080           0
     33250 WT2      4834     TIP3     OH2      OT      -0.834000       15.9994           0
     33251 WT2      4834     TIP3     H1       HT       0.417000        1.0080           0
     33252 WT2      4834     TIP3     H2       HT       0.417000        1.0080           0
     33253 WT2      4835     TIP3     OH2      OT      -0.834000       15.9994           0
     33254 WT2      4835     TIP3     H1       HT       0.417000        1.0080           0
     33255 WT2      4835     TIP3     H2       HT       0.417000        1.0080           0
     33256 WT2      4836     TIP3     OH2      OT      -0.834000       15.9994           0
     33257 WT2      4836     TIP3     H1       HT       0.417000        1.0080           0
     33258 WT2      4836     TIP3     H2       HT       0.417000        1.0080           0
     33259 WT2      4837     TIP3     OH2      OT      -0.834000       15.9994           0
     33260 WT2      4837     TIP3     H1       HT       0.417000        1.0080           0
     33261 WT2      4837     TIP3     H2       HT       0.417000        1.0080           0
     33262 WT2      4839     TIP3     OH2      OT      -0.834000       15.9994           0
     33263 WT2      4839     TIP3     H1       HT       0.417000        1.0080           0
     33264 WT2      4839     TIP3     H2       HT       0.417000        1.0080           0
     33265 WT2      4841     TIP3     OH2      OT      -0.834000       15.9994           0
     33266 WT2      4841     TIP3     H1       HT       0.417000        1.0080           0
     33267 WT2      4841     TIP3     H2       HT       0.417000        1.0080           0
     33268 WT2      4849     TIP3     OH2      OT      -0.834000       15.9994           0
     33269 WT2      4849     TIP3     H1       HT       0.417000        1.0080           0
     33270 WT2      4849     TIP3     H2       HT       0.417000        1.0080           0
     33271 WT2      4851     TIP3     OH2      OT      -0.834000       15.9994           0
     33272 WT2      4851     TIP3     H1       HT       0.417000        1.0080           0
     33273 WT2      4851     TIP3     H2       HT       0.417000        1.0080           0
     33274 WT2      4852     TIP3     OH2      OT      -0.834000       15.9994           0
     33275 WT2      4852     TIP3     H1       HT       0.417000        1.0080           0
     33276 WT2      4852     TIP3     H2       HT       0.417000        1.0080           0
     33277 WT2      4853     TIP3     OH2      OT      -0.834000       15.9994           0
     33278 WT2      4853     TIP3     H1       HT       0.417000        1.0080           0
     33279 WT2      4853     TIP3     H2       HT       0.417000        1.0080           0
     33280 WT2      4854     TIP3     OH2      OT      -0.834000       15.9994           0
     33281 WT2      4854     TIP3     H1       HT       0.417000        1.0080           0
     33282 WT2      4854     TIP3     H2       HT       0.417000        1.0080           0
     33283 WT2      4855     TIP3     OH2      OT      -0.834000       15.9994           0
     33284 WT2      4855     TIP3     H1       HT       0.417000        1.0080           0
     33285 WT2      4855     TIP3     H2       HT       0.417000        1.0080           0
     33286 WT2      4857     TIP3     OH2      OT      -0.834000       15.9994           0
     33287 WT2      4857     TIP3     H1       HT       0.417000        1.0080           0
     33288 WT2      4857     TIP3     H2       HT       0.417000        1.0080           0
     33289 WT2      4859     TIP3     OH2      OT      -0.834000       15.9994           0
     33290 WT2      4859     TIP3     H1       HT       0.417000        1.0080           0
     33291 WT2      4859     TIP3     H2       HT       0.417000        1.0080           0
     33292 WT2      4860     TIP3     OH2      OT      -0.834000       15.9994           0
     33293 WT2      4860     TIP3     H1       HT       0.417000        1.0080           0
     33294 WT2      4860     TIP3     H2       HT       0.417000        1.0080           0
     33295 WT2      4863     TIP3     OH2      OT      -0.834000       15.9994           0
     33296 WT2      4863     TIP3     H1       HT       0.417000        1.0080           0
     33297 WT2      4863     TIP3     H2       HT       0.417000        1.0080           0
     33298 WT2      4872     TIP3     OH2      OT      -0.834000       15.9994           0
     33299 WT2      4872     TIP3     H1       HT       0.417000        1.0080           0
     33300 WT2      4872     TIP3     H2       HT       0.417000        1.0080           0
     33301 WT2      4875     TIP3     OH2      OT      -0.834000       15.9994           0
     33302 WT2      4875     TIP3     H1       HT       0.417000        1.0080           0
     33303 WT2      4875     TIP3     H2       HT       0.417000        1.0080           0
     33304 WT2      4876     TIP3     OH2      OT      -0.834000       15.9994           0
     33305 WT2      4876     TIP3     H1       HT       0.417000        1.0080           0
     33306 WT2      4876     TIP3     H2       HT       0.417000        1.0080           0
     33307 WT2      4877     TIP3     OH2      OT      -0.834000       15.9994           0
     33308 WT2      4877     TIP3     H1       HT       0.417000        1.0080           0
     33309 WT2      4877     TIP3     H2       HT       0.417000        1.0080           0
     33310 WT2      4879     TIP3     OH2      OT      -0.834000       15.9994           0
     33311 WT2      4879     TIP3     H1       HT       0.417000        1.0080           0
     33312 WT2      4879     TIP3     H2       HT       0.417000        1.0080           0
     33313 WT2      4890     TIP3     OH2      OT      -0.834000       15.9994           0
     33314 WT2      4890     TIP3     H1       HT       0.417000        1.0080           0
     33315 WT2      4890     TIP3     H2       HT       0.417000        1.0080           0
     33316 WT2      4893     TIP3     OH2      OT      -0.834000       15.9994           0
     33317 WT2      4893     TIP3     H1       HT       0.417000        1.0080           0
     33318 WT2      4893     TIP3     H2       HT       0.417000        1.0080           0
     33319 WT2      4896     TIP3     OH2      OT      -0.834000       15.9994           0
     33320 WT2      4896     TIP3     H1       HT       0.417000        1.0080           0
     33321 WT2      4896     TIP3     H2       HT       0.417000        1.0080           0
     33322 WT2      4897     TIP3     OH2      OT      -0.834000       15.9994           0
     33323 WT2      4897     TIP3     H1       HT       0.417000        1.0080           0
     33324 WT2      4897     TIP3     H2       HT       0.417000        1.0080           0
     33325 WT2      4898     TIP3     OH2      OT      -0.834000       15.9994           0
     33326 WT2      4898     TIP3     H1       HT       0.417000        1.0080           0
     33327 WT2      4898     TIP3     H2       HT       0.417000        1.0080           0
     33328 WT2      4899     TIP3     OH2      OT      -0.834000       15.9994           0
     33329 WT2      4899     TIP3     H1       HT       0.417000        1.0080           0
     33330 WT2      4899     TIP3     H2       HT       0.417000        1.0080           0
     33331 WT2      4904     TIP3     OH2      OT      -0.834000       15.9994           0
     33332 WT2      4904     TIP3     H1       HT       0.417000        1.0080           0
     33333 WT2      4904     TIP3     H2       HT       0.417000        1.0080           0
     33334 WT2      4914     TIP3     OH2      OT      -0.834000       15.9994           0
     33335 WT2      4914     TIP3     H1       HT       0.417000        1.0080           0
     33336 WT2      4914     TIP3     H2       HT       0.417000        1.0080           0
     33337 WT2      4915     TIP3     OH2      OT      -0.834000       15.9994           0
     33338 WT2      4915     TIP3     H1       HT       0.417000        1.0080           0
     33339 WT2      4915     TIP3     H2       HT       0.417000        1.0080           0
     33340 WT2      4916     TIP3     OH2      OT      -0.834000       15.9994           0
     33341 WT2      4916     TIP3     H1       HT       0.417000        1.0080           0
     33342 WT2      4916     TIP3     H2       HT       0.417000        1.0080           0
     33343 WT2      4918     TIP3     OH2      OT      -0.834000       15.9994           0
     33344 WT2      4918     TIP3     H1       HT       0.417000        1.0080           0
     33345 WT2      4918     TIP3     H2       HT       0.417000        1.0080           0
     33346 WT2      4919     TIP3     OH2      OT      -0.834000       15.9994           0
     33347 WT2      4919     TIP3     H1       HT       0.417000        1.0080           0
     33348 WT2      4919     TIP3     H2       HT       0.417000        1.0080           0
     33349 WT2      4921     TIP3     OH2      OT      -0.834000       15.9994           0
     33350 WT2      4921     TIP3     H1       HT       0.417000        1.0080           0
     33351 WT2      4921     TIP3     H2       HT       0.417000        1.0080           0
     33352 WT2      4922     TIP3     OH2      OT      -0.834000       15.9994           0
     33353 WT2      4922     TIP3     H1       HT       0.417000        1.0080           0
     33354 WT2      4922     TIP3     H2       HT       0.417000        1.0080           0
     33355 WT2      4923     TIP3     OH2      OT      -0.834000       15.9994           0
     33356 WT2      4923     TIP3     H1       HT       0.417000        1.0080           0
     33357 WT2      4923     TIP3     H2       HT       0.417000        1.0080           0
     33358 WT2      4924     TIP3     OH2      OT      -0.834000       15.9994           0
     33359 WT2      4924     TIP3     H1       HT       0.417000        1.0080           0
     33360 WT2      4924     TIP3     H2       HT       0.417000        1.0080           0
     33361 WT2      4934     TIP3     OH2      OT      -0.834000       15.9994           0
     33362 WT2      4934     TIP3     H1       HT       0.417000        1.0080           0
     33363 WT2      4934     TIP3     H2       HT       0.417000        1.0080           0
     33364 WT2      4935     TIP3     OH2      OT      -0.834000       15.9994           0
     33365 WT2      4935     TIP3     H1       HT       0.417000        1.0080           0
     33366 WT2      4935     TIP3     H2       HT       0.417000        1.0080           0
     33367 WT2      4936     TIP3     OH2      OT      -0.834000       15.9994           0
     33368 WT2      4936     TIP3     H1       HT       0.417000        1.0080           0
     33369 WT2      4936     TIP3     H2       HT       0.417000        1.0080           0
     33370 WT2      4937     TIP3     OH2      OT      -0.834000       15.9994           0
     33371 WT2      4937     TIP3     H1       HT       0.417000        1.0080           0
     33372 WT2      4937     TIP3     H2       HT       0.417000        1.0080           0
     33373 WT2      4939     TIP3     OH2      OT      -0.834000       15.9994           0
     33374 WT2      4939     TIP3     H1       HT       0.417000        1.0080           0
     33375 WT2      4939     TIP3     H2       HT       0.417000        1.0080           0
     33376 WT2      4940     TIP3     OH2      OT      -0.834000       15.9994           0
     33377 WT2      4940     TIP3     H1       HT       0.417000        1.0080           0
     33378 WT2      4940     TIP3     H2       HT       0.417000        1.0080           0
     33379 WT2      4942     TIP3     OH2      OT      -0.834000       15.9994           0
     33380 WT2      4942     TIP3     H1       HT       0.417000        1.0080           0
     33381 WT2      4942     TIP3     H2       HT       0.417000        1.0080           0
     33382 WT2      4956     TIP3     OH2      OT      -0.834000       15.9994           0
     33383 WT2      4956     TIP3     H1       HT       0.417000        1.0080           0
     33384 WT2      4956     TIP3     H2       HT       0.417000        1.0080           0
     33385 WT2      4957     TIP3     OH2      OT      -0.834000       15.9994           0
     33386 WT2      4957     TIP3     H1       HT       0.417000        1.0080           0
     33387 WT2      4957     TIP3     H2       HT       0.417000        1.0080           0
     33388 WT2      4962     TIP3     OH2      OT      -0.834000       15.9994           0
     33389 WT2      4962     TIP3     H1       HT       0.417000        1.0080           0
     33390 WT2      4962     TIP3     H2       HT       0.417000        1.0080           0
     33391 WT2      4963     TIP3     OH2      OT      -0.834000       15.9994           0
     33392 WT2      4963     TIP3     H1       HT       0.417000        1.0080           0
     33393 WT2      4963     TIP3     H2       HT       0.417000        1.0080           0
     33394 WT2      4965     TIP3     OH2      OT      -0.834000       15.9994           0
     33395 WT2      4965     TIP3     H1       HT       0.417000        1.0080           0
     33396 WT2      4965     TIP3     H2       HT       0.417000        1.0080           0
     33397 WT2      4968     TIP3     OH2      OT      -0.834000       15.9994           0
     33398 WT2      4968     TIP3     H1       HT       0.417000        1.0080           0
     33399 WT2      4968     TIP3     H2       HT       0.417000        1.0080           0
     33400 WT2      4978     TIP3     OH2      OT      -0.834000       15.9994           0
     33401 WT2      4978     TIP3     H1       HT       0.417000        1.0080           0
     33402 WT2      4978     TIP3     H2       HT       0.417000        1.0080           0
     33403 WT2      4979     TIP3     OH2      OT      -0.834000       15.9994           0
     33404 WT2      4979     TIP3     H1       HT       0.417000        1.0080           0
     33405 WT2      4979     TIP3     H2       HT       0.417000        1.0080           0
     33406 WT2      4980     TIP3     OH2      OT      -0.834000       15.9994           0
     33407 WT2      4980     TIP3     H1       HT       0.417000        1.0080           0
     33408 WT2      4980     TIP3     H2       HT       0.417000        1.0080           0
     33409 WT2      4981     TIP3     OH2      OT      -0.834000       15.9994           0
     33410 WT2      4981     TIP3     H1       HT       0.417000        1.0080           0
     33411 WT2      4981     TIP3     H2       HT       0.417000        1.0080           0
     33412 WT2      4982     TIP3     OH2      OT      -0.834000       15.9994           0
     33413 WT2      4982     TIP3     H1       HT       0.417000        1.0080           0
     33414 WT2      4982     TIP3     H2       HT       0.417000        1.0080           0
     33415 WT2      4983     TIP3     OH2      OT      -0.834000       15.9994           0
     33416 WT2      4983     TIP3     H1       HT       0.417000        1.0080           0
     33417 WT2      4983     TIP3     H2       HT       0.417000        1.0080           0
     33418 WT2      4984     TIP3     OH2      OT      -0.834000       15.9994           0
     33419 WT2      4984     TIP3     H1       HT       0.417000        1.0080           0
     33420 WT2      4984     TIP3     H2       HT       0.417000        1.0080           0
     33421 WT2      4985     TIP3     OH2      OT      -0.834000       15.9994           0
     33422 WT2      4985     TIP3     H1       HT       0.417000        1.0080           0
     33423 WT2      4985     TIP3     H2       HT       0.417000        1.0080           0
     33424 WT2      4996     TIP3     OH2      OT      -0.834000       15.9994           0
     33425 WT2      4996     TIP3     H1       HT       0.417000        1.0080           0
     33426 WT2      4996     TIP3     H2       HT       0.417000        1.0080           0
     33427 WT2      4998     TIP3     OH2      OT      -0.834000       15.9994           0
     33428 WT2      4998     TIP3     H1       HT       0.417000        1.0080           0
     33429 WT2      4998     TIP3     H2       HT       0.417000        1.0080           0
     33430 WT2      4999     TIP3     OH2      OT      -0.834000       15.9994           0
     33431 WT2      4999     TIP3     H1       HT       0.417000        1.0080           0
     33432 WT2      4999     TIP3     H2       HT       0.417000        1.0080           0
     33433 WT2      5000     TIP3     OH2      OT      -0.834000       15.9994           0
     33434 WT2      5000     TIP3     H1       HT       0.417000        1.0080           0
     33435 WT2      5000     TIP3     H2       HT       0.417000        1.0080           0
     33436 WT2      5001     TIP3     OH2      OT      -0.834000       15.9994           0
     33437 WT2      5001     TIP3     H1       HT       0.417000        1.0080           0
     33438 WT2      5001     TIP3     H2       HT       0.417000        1.0080           0
     33439 WT2      5002     TIP3     OH2      OT      -0.834000       15.9994           0
     33440 WT2      5002     TIP3     H1       HT       0.417000        1.0080           0
     33441 WT2      5002     TIP3     H2       HT       0.417000        1.0080           0
     33442 WT2      5004     TIP3     OH2      OT      -0.834000       15.9994           0
     33443 WT2      5004     TIP3     H1       HT       0.417000        1.0080           0
     33444 WT2      5004     TIP3     H2       HT       0.417000        1.0080           0
     33445 WT2      5005     TIP3     OH2      OT      -0.834000       15.9994           0
     33446 WT2      5005     TIP3     H1       HT       0.417000        1.0080           0
     33447 WT2      5005     TIP3     H2       HT       0.417000        1.0080           0
     33448 WT2      5009     TIP3     OH2      OT      -0.834000       15.9994           0
     33449 WT2      5009     TIP3     H1       HT       0.417000        1.0080           0
     33450 WT2      5009     TIP3     H2       HT       0.417000        1.0080           0
     33451 WT2      5019     TIP3     OH2      OT      -0.834000       15.9994           0
     33452 WT2      5019     TIP3     H1       HT       0.417000        1.0080           0
     33453 WT2      5019     TIP3     H2       HT       0.417000        1.0080           0
     33454 WT2      5021     TIP3     OH2      OT      -0.834000       15.9994           0
     33455 WT2      5021     TIP3     H1       HT       0.417000        1.0080           0
     33456 WT2      5021     TIP3     H2       HT       0.417000        1.0080           0
     33457 WT2      5023     TIP3     OH2      OT      -0.834000       15.9994           0
     33458 WT2      5023     TIP3     H1       HT       0.417000        1.0080           0
     33459 WT2      5023     TIP3     H2       HT       0.417000        1.0080           0
     33460 WT2      5025     TIP3     OH2      OT      -0.834000       15.9994           0
     33461 WT2      5025     TIP3     H1       HT       0.417000        1.0080           0
     33462 WT2      5025     TIP3     H2       HT       0.417000        1.0080           0
     33463 WT2      5040     TIP3     OH2      OT      -0.834000       15.9994           0
     33464 WT2      5040     TIP3     H1       HT       0.417000        1.0080           0
     33465 WT2      5040     TIP3     H2       HT       0.417000        1.0080           0
     33466 WT2      5043     TIP3     OH2      OT      -0.834000       15.9994           0
     33467 WT2      5043     TIP3     H1       HT       0.417000        1.0080           0
     33468 WT2      5043     TIP3     H2       HT       0.417000        1.0080           0
     33469 WT2      5044     TIP3     OH2      OT      -0.834000       15.9994           0
     33470 WT2      5044     TIP3     H1       HT       0.417000        1.0080           0
     33471 WT2      5044     TIP3     H2       HT       0.417000        1.0080           0
     33472 WT2      5045     TIP3     OH2      OT      -0.834000       15.9994           0
     33473 WT2      5045     TIP3     H1       HT       0.417000        1.0080           0
     33474 WT2      5045     TIP3     H2       HT       0.417000        1.0080           0
     33475 WT2      5046     TIP3     OH2      OT      -0.834000       15.9994           0
     33476 WT2      5046     TIP3     H1       HT       0.417000        1.0080           0
     33477 WT2      5046     TIP3     H2       HT       0.417000        1.0080           0
     33478 WT2      5049     TIP3     OH2      OT      -0.834000       15.9994           0
     33479 WT2      5049     TIP3     H1       HT       0.417000        1.0080           0
     33480 WT2      5049     TIP3     H2       HT       0.417000        1.0080           0
     33481 WT2      5060     TIP3     OH2      OT      -0.834000       15.9994           0
     33482 WT2      5060     TIP3     H1       HT       0.417000        1.0080           0
     33483 WT2      5060     TIP3     H2       HT       0.417000        1.0080           0
     33484 WT2      5061     TIP3     OH2      OT      -0.834000       15.9994           0
     33485 WT2      5061     TIP3     H1       HT       0.417000        1.0080           0
     33486 WT2      5061     TIP3     H2       HT       0.417000        1.0080           0
     33487 WT2      5062     TIP3     OH2      OT      -0.834000       15.9994           0
     33488 WT2      5062     TIP3     H1       HT       0.417000        1.0080           0
     33489 WT2      5062     TIP3     H2       HT       0.417000        1.0080           0
     33490 WT2      5063     TIP3     OH2      OT      -0.834000       15.9994           0
     33491 WT2      5063     TIP3     H1       HT       0.417000        1.0080           0
     33492 WT2      5063     TIP3     H2       HT       0.417000        1.0080           0
     33493 WT2      5064     TIP3     OH2      OT      -0.834000       15.9994           0
     33494 WT2      5064     TIP3     H1       HT       0.417000        1.0080           0
     33495 WT2      5064     TIP3     H2       HT       0.417000        1.0080           0
     33496 WT2      5065     TIP3     OH2      OT      -0.834000       15.9994           0
     33497 WT2      5065     TIP3     H1       HT       0.417000        1.0080           0
     33498 WT2      5065     TIP3     H2       HT       0.417000        1.0080           0
     33499 WT2      5067     TIP3     OH2      OT      -0.834000       15.9994           0
     33500 WT2      5067     TIP3     H1       HT       0.417000        1.0080           0
     33501 WT2      5067     TIP3     H2       HT       0.417000        1.0080           0
     33502 WT2      5068     TIP3     OH2      OT      -0.834000       15.9994           0
     33503 WT2      5068     TIP3     H1       HT       0.417000        1.0080           0
     33504 WT2      5068     TIP3     H2       HT       0.417000        1.0080           0
     33505 WT2      5069     TIP3     OH2      OT      -0.834000       15.9994           0
     33506 WT2      5069     TIP3     H1       HT       0.417000        1.0080           0
     33507 WT2      5069     TIP3     H2       HT       0.417000        1.0080           0
     33508 WT2      5071     TIP3     OH2      OT      -0.834000       15.9994           0
     33509 WT2      5071     TIP3     H1       HT       0.417000        1.0080           0
     33510 WT2      5071     TIP3     H2       HT       0.417000        1.0080           0
     33511 WT2      5085     TIP3     OH2      OT      -0.834000       15.9994           0
     33512 WT2      5085     TIP3     H1       HT       0.417000        1.0080           0
     33513 WT2      5085     TIP3     H2       HT       0.417000        1.0080           0
     33514 WT2      5088     TIP3     OH2      OT      -0.834000       15.9994           0
     33515 WT2      5088     TIP3     H1       HT       0.417000        1.0080           0
     33516 WT2      5088     TIP3     H2       HT       0.417000        1.0080           0
     33517 WT2      5090     TIP3     OH2      OT      -0.834000       15.9994           0
     33518 WT2      5090     TIP3     H1       HT       0.417000        1.0080           0
     33519 WT2      5090     TIP3     H2       HT       0.417000        1.0080           0
     33520 WT2      5091     TIP3     OH2      OT      -0.834000       15.9994           0
     33521 WT2      5091     TIP3     H1       HT       0.417000        1.0080           0
     33522 WT2      5091     TIP3     H2       HT       0.417000        1.0080           0
     33523 WT2      5093     TIP3     OH2      OT      -0.834000       15.9994           0
     33524 WT2      5093     TIP3     H1       HT       0.417000        1.0080           0
     33525 WT2      5093     TIP3     H2       HT       0.417000        1.0080           0
     33526 WT2      5097     TIP3     OH2      OT      -0.834000       15.9994           0
     33527 WT2      5097     TIP3     H1       HT       0.417000        1.0080           0
     33528 WT2      5097     TIP3     H2       HT       0.417000        1.0080           0
     33529 WT2      5104     TIP3     OH2      OT      -0.834000       15.9994           0
     33530 WT2      5104     TIP3     H1       HT       0.417000        1.0080           0
     33531 WT2      5104     TIP3     H2       HT       0.417000        1.0080           0
     33532 WT2      5106     TIP3     OH2      OT      -0.834000       15.9994           0
     33533 WT2      5106     TIP3     H1       HT       0.417000        1.0080           0
     33534 WT2      5106     TIP3     H2       HT       0.417000        1.0080           0
     33535 WT2      5108     TIP3     OH2      OT      -0.834000       15.9994           0
     33536 WT2      5108     TIP3     H1       HT       0.417000        1.0080           0
     33537 WT2      5108     TIP3     H2       HT       0.417000        1.0080           0
     33538 WT2      5109     TIP3     OH2      OT      -0.834000       15.9994           0
     33539 WT2      5109     TIP3     H1       HT       0.417000        1.0080           0
     33540 WT2      5109     TIP3     H2       HT       0.417000        1.0080           0
     33541 WT2      5110     TIP3     OH2      OT      -0.834000       15.9994           0
     33542 WT2      5110     TIP3     H1       HT       0.417000        1.0080           0
     33543 WT2      5110     TIP3     H2       HT       0.417000        1.0080           0
     33544 WT2      5111     TIP3     OH2      OT      -0.834000       15.9994           0
     33545 WT2      5111     TIP3     H1       HT       0.417000        1.0080           0
     33546 WT2      5111     TIP3     H2       HT       0.417000        1.0080           0
     33547 WT2      5112     TIP3     OH2      OT      -0.834000       15.9994           0
     33548 WT2      5112     TIP3     H1       HT       0.417000        1.0080           0
     33549 WT2      5112     TIP3     H2       HT       0.417000        1.0080           0
     33550 WT2      5117     TIP3     OH2      OT      -0.834000       15.9994           0
     33551 WT2      5117     TIP3     H1       HT       0.417000        1.0080           0
     33552 WT2      5117     TIP3     H2       HT       0.417000        1.0080           0
     33553 WT2      5126     TIP3     OH2      OT      -0.834000       15.9994           0
     33554 WT2      5126     TIP3     H1       HT       0.417000        1.0080           0
     33555 WT2      5126     TIP3     H2       HT       0.417000        1.0080           0
     33556 WT2      5127     TIP3     OH2      OT      -0.834000       15.9994           0
     33557 WT2      5127     TIP3     H1       HT       0.417000        1.0080           0
     33558 WT2      5127     TIP3     H2       HT       0.417000        1.0080           0
     33559 WT2      5128     TIP3     OH2      OT      -0.834000       15.9994           0
     33560 WT2      5128     TIP3     H1       HT       0.417000        1.0080           0
     33561 WT2      5128     TIP3     H2       HT       0.417000        1.0080           0
     33562 WT2      5129     TIP3     OH2      OT      -0.834000       15.9994           0
     33563 WT2      5129     TIP3     H1       HT       0.417000        1.0080           0
     33564 WT2      5129     TIP3     H2       HT       0.417000        1.0080           0
     33565 WT2      5130     TIP3     OH2      OT      -0.834000       15.9994           0
     33566 WT2      5130     TIP3     H1       HT       0.417000        1.0080           0
     33567 WT2      5130     TIP3     H2       HT       0.417000        1.0080           0
     33568 WT2      5131     TIP3     OH2      OT      -0.834000       15.9994           0
     33569 WT2      5131     TIP3     H1       HT       0.417000        1.0080           0
     33570 WT2      5131     TIP3     H2       HT       0.417000        1.0080           0
     33571 WT2      5132     TIP3     OH2      OT      -0.834000       15.9994           0
     33572 WT2      5132     TIP3     H1       HT       0.417000        1.0080           0
     33573 WT2      5132     TIP3     H2       HT       0.417000        1.0080           0
     33574 WT2      5133     TIP3     OH2      OT      -0.834000       15.9994           0
     33575 WT2      5133     TIP3     H1       HT       0.417000        1.0080           0
     33576 WT2      5133     TIP3     H2       HT       0.417000        1.0080           0
     33577 WT2      5134     TIP3     OH2      OT      -0.834000       15.9994           0
     33578 WT2      5134     TIP3     H1       HT       0.417000        1.0080           0
     33579 WT2      5134     TIP3     H2       HT       0.417000        1.0080           0
     33580 WT2      5146     TIP3     OH2      OT      -0.834000       15.9994           0
     33581 WT2      5146     TIP3     H1       HT       0.417000        1.0080           0
     33582 WT2      5146     TIP3     H2       HT       0.417000        1.0080           0
     33583 WT2      5147     TIP3     OH2      OT      -0.834000       15.9994           0
     33584 WT2      5147     TIP3     H1       HT       0.417000        1.0080           0
     33585 WT2      5147     TIP3     H2       HT       0.417000        1.0080           0
     33586 WT2      5148     TIP3     OH2      OT      -0.834000       15.9994           0
     33587 WT2      5148     TIP3     H1       HT       0.417000        1.0080           0
     33588 WT2      5148     TIP3     H2       HT       0.417000        1.0080           0
     33589 WT2      5149     TIP3     OH2      OT      -0.834000       15.9994           0
     33590 WT2      5149     TIP3     H1       HT       0.417000        1.0080           0
     33591 WT2      5149     TIP3     H2       HT       0.417000        1.0080           0
     33592 WT2      5151     TIP3     OH2      OT      -0.834000       15.9994           0
     33593 WT2      5151     TIP3     H1       HT       0.417000        1.0080           0
     33594 WT2      5151     TIP3     H2       HT       0.417000        1.0080           0
     33595 WT2      5152     TIP3     OH2      OT      -0.834000       15.9994           0
     33596 WT2      5152     TIP3     H1       HT       0.417000        1.0080           0
     33597 WT2      5152     TIP3     H2       HT       0.417000        1.0080           0
     33598 WT2      5154     TIP3     OH2      OT      -0.834000       15.9994           0
     33599 WT2      5154     TIP3     H1       HT       0.417000        1.0080           0
     33600 WT2      5154     TIP3     H2       HT       0.417000        1.0080           0
     33601 WT2      5155     TIP3     OH2      OT      -0.834000       15.9994           0
     33602 WT2      5155     TIP3     H1       HT       0.417000        1.0080           0
     33603 WT2      5155     TIP3     H2       HT       0.417000        1.0080           0
     33604 WT2      5156     TIP3     OH2      OT      -0.834000       15.9994           0
     33605 WT2      5156     TIP3     H1       HT       0.417000        1.0080           0
     33606 WT2      5156     TIP3     H2       HT       0.417000        1.0080           0
     33607 WT2      5162     TIP3     OH2      OT      -0.834000       15.9994           0
     33608 WT2      5162     TIP3     H1       HT       0.417000        1.0080           0
     33609 WT2      5162     TIP3     H2       HT       0.417000        1.0080           0
     33610 WT2      5164     TIP3     OH2      OT      -0.834000       15.9994           0
     33611 WT2      5164     TIP3     H1       HT       0.417000        1.0080           0
     33612 WT2      5164     TIP3     H2       HT       0.417000        1.0080           0
     33613 WT2      5165     TIP3     OH2      OT      -0.834000       15.9994           0
     33614 WT2      5165     TIP3     H1       HT       0.417000        1.0080           0
     33615 WT2      5165     TIP3     H2       HT       0.417000        1.0080           0
     33616 WT2      5166     TIP3     OH2      OT      -0.834000       15.9994           0
     33617 WT2      5166     TIP3     H1       HT       0.417000        1.0080           0
     33618 WT2      5166     TIP3     H2       HT       0.417000        1.0080           0
     33619 WT2      5168     TIP3     OH2      OT      -0.834000       15.9994           0
     33620 WT2      5168     TIP3     H1       HT       0.417000        1.0080           0
     33621 WT2      5168     TIP3     H2       HT       0.417000        1.0080           0
     33622 WT2      5172     TIP3     OH2      OT      -0.834000       15.9994           0
     33623 WT2      5172     TIP3     H1       HT       0.417000        1.0080           0
     33624 WT2      5172     TIP3     H2       HT       0.417000        1.0080           0
     33625 WT2      5173     TIP3     OH2      OT      -0.834000       15.9994           0
     33626 WT2      5173     TIP3     H1       HT       0.417000        1.0080           0
     33627 WT2      5173     TIP3     H2       HT       0.417000        1.0080           0
     33628 WT2      5175     TIP3     OH2      OT      -0.834000       15.9994           0
     33629 WT2      5175     TIP3     H1       HT       0.417000        1.0080           0
     33630 WT2      5175     TIP3     H2       HT       0.417000        1.0080           0
     33631 WT2      5186     TIP3     OH2      OT      -0.834000       15.9994           0
     33632 WT2      5186     TIP3     H1       HT       0.417000        1.0080           0
     33633 WT2      5186     TIP3     H2       HT       0.417000        1.0080           0
     33634 WT2      5188     TIP3     OH2      OT      -0.834000       15.9994           0
     33635 WT2      5188     TIP3     H1       HT       0.417000        1.0080           0
     33636 WT2      5188     TIP3     H2       HT       0.417000        1.0080           0
     33637 WT2      5189     TIP3     OH2      OT      -0.834000       15.9994           0
     33638 WT2      5189     TIP3     H1       HT       0.417000        1.0080           0
     33639 WT2      5189     TIP3     H2       HT       0.417000        1.0080           0
     33640 WT2      5190     TIP3     OH2      OT      -0.834000       15.9994           0
     33641 WT2      5190     TIP3     H1       HT       0.417000        1.0080           0
     33642 WT2      5190     TIP3     H2       HT       0.417000        1.0080           0
     33643 WT2      5191     TIP3     OH2      OT      -0.834000       15.9994           0
     33644 WT2      5191     TIP3     H1       HT       0.417000        1.0080           0
     33645 WT2      5191     TIP3     H2       HT       0.417000        1.0080           0
     33646 WT2      5193     TIP3     OH2      OT      -0.834000       15.9994           0
     33647 WT2      5193     TIP3     H1       HT       0.417000        1.0080           0
     33648 WT2      5193     TIP3     H2       HT       0.417000        1.0080           0
     33649 WT2      5194     TIP3     OH2      OT      -0.834000       15.9994           0
     33650 WT2      5194     TIP3     H1       HT       0.417000        1.0080           0
     33651 WT2      5194     TIP3     H2       HT       0.417000        1.0080           0
     33652 WT2      5206     TIP3     OH2      OT      -0.834000       15.9994           0
     33653 WT2      5206     TIP3     H1       HT       0.417000        1.0080           0
     33654 WT2      5206     TIP3     H2       HT       0.417000        1.0080           0
     33655 WT2      5211     TIP3     OH2      OT      -0.834000       15.9994           0
     33656 WT2      5211     TIP3     H1       HT       0.417000        1.0080           0
     33657 WT2      5211     TIP3     H2       HT       0.417000        1.0080           0
     33658 WT2      5214     TIP3     OH2      OT      -0.834000       15.9994           0
     33659 WT2      5214     TIP3     H1       HT       0.417000        1.0080           0
     33660 WT2      5214     TIP3     H2       HT       0.417000        1.0080           0
     33661 WT2      5216     TIP3     OH2      OT      -0.834000       15.9994           0
     33662 WT2      5216     TIP3     H1       HT       0.417000        1.0080           0
     33663 WT2      5216     TIP3     H2       HT       0.417000        1.0080           0
     33664 WT2      5230     TIP3     OH2      OT      -0.834000       15.9994           0
     33665 WT2      5230     TIP3     H1       HT       0.417000        1.0080           0
     33666 WT2      5230     TIP3     H2       HT       0.417000        1.0080           0
     33667 WT2      5231     TIP3     OH2      OT      -0.834000       15.9994           0
     33668 WT2      5231     TIP3     H1       HT       0.417000        1.0080           0
     33669 WT2      5231     TIP3     H2       HT       0.417000        1.0080           0
     33670 WT2      5232     TIP3     OH2      OT      -0.834000       15.9994           0
     33671 WT2      5232     TIP3     H1       HT       0.417000        1.0080           0
     33672 WT2      5232     TIP3     H2       HT       0.417000        1.0080           0
     33673 WT2      5233     TIP3     OH2      OT      -0.834000       15.9994           0
     33674 WT2      5233     TIP3     H1       HT       0.417000        1.0080           0
     33675 WT2      5233     TIP3     H2       HT       0.417000        1.0080           0
     33676 WT2      5234     TIP3     OH2      OT      -0.834000       15.9994           0
     33677 WT2      5234     TIP3     H1       HT       0.417000        1.0080           0
     33678 WT2      5234     TIP3     H2       HT       0.417000        1.0080           0
     33679 WT2      5235     TIP3     OH2      OT      -0.834000       15.9994           0
     33680 WT2      5235     TIP3     H1       HT       0.417000        1.0080           0
     33681 WT2      5235     TIP3     H2       HT       0.417000        1.0080           0
     33682 WT2      5237     TIP3     OH2      OT      -0.834000       15.9994           0
     33683 WT2      5237     TIP3     H1       HT       0.417000        1.0080           0
     33684 WT2      5237     TIP3     H2       HT       0.417000        1.0080           0
     33685 WT2      5239     TIP3     OH2      OT      -0.834000       15.9994           0
     33686 WT2      5239     TIP3     H1       HT       0.417000        1.0080           0
     33687 WT2      5239     TIP3     H2       HT       0.417000        1.0080           0
     33688 WT2      5241     TIP3     OH2      OT      -0.834000       15.9994           0
     33689 WT2      5241     TIP3     H1       HT       0.417000        1.0080           0
     33690 WT2      5241     TIP3     H2       HT       0.417000        1.0080           0
     33691 WT2      5251     TIP3     OH2      OT      -0.834000       15.9994           0
     33692 WT2      5251     TIP3     H1       HT       0.417000        1.0080           0
     33693 WT2      5251     TIP3     H2       HT       0.417000        1.0080           0
     33694 WT2      5253     TIP3     OH2      OT      -0.834000       15.9994           0
     33695 WT2      5253     TIP3     H1       HT       0.417000        1.0080           0
     33696 WT2      5253     TIP3     H2       HT       0.417000        1.0080           0
     33697 WT2      5255     TIP3     OH2      OT      -0.834000       15.9994           0
     33698 WT2      5255     TIP3     H1       HT       0.417000        1.0080           0
     33699 WT2      5255     TIP3     H2       HT       0.417000        1.0080           0
     33700 WT2      5256     TIP3     OH2      OT      -0.834000       15.9994           0
     33701 WT2      5256     TIP3     H1       HT       0.417000        1.0080           0
     33702 WT2      5256     TIP3     H2       HT       0.417000        1.0080           0
     33703 WT2      5258     TIP3     OH2      OT      -0.834000       15.9994           0
     33704 WT2      5258     TIP3     H1       HT       0.417000        1.0080           0
     33705 WT2      5258     TIP3     H2       HT       0.417000        1.0080           0
     33706 WT2      5259     TIP3     OH2      OT      -0.834000       15.9994           0
     33707 WT2      5259     TIP3     H1       HT       0.417000        1.0080           0
     33708 WT2      5259     TIP3     H2       HT       0.417000        1.0080           0
     33709 WT2      5260     TIP3     OH2      OT      -0.834000       15.9994           0
     33710 WT2      5260     TIP3     H1       HT       0.417000        1.0080           0
     33711 WT2      5260     TIP3     H2       HT       0.417000        1.0080           0
     33712 WT2      5270     TIP3     OH2      OT      -0.834000       15.9994           0
     33713 WT2      5270     TIP3     H1       HT       0.417000        1.0080           0
     33714 WT2      5270     TIP3     H2       HT       0.417000        1.0080           0
     33715 WT2      5271     TIP3     OH2      OT      -0.834000       15.9994           0
     33716 WT2      5271     TIP3     H1       HT       0.417000        1.0080           0
     33717 WT2      5271     TIP3     H2       HT       0.417000        1.0080           0
     33718 WT2      5272     TIP3     OH2      OT      -0.834000       15.9994           0
     33719 WT2      5272     TIP3     H1       HT       0.417000        1.0080           0
     33720 WT2      5272     TIP3     H2       HT       0.417000        1.0080           0
     33721 WT2      5274     TIP3     OH2      OT      -0.834000       15.9994           0
     33722 WT2      5274     TIP3     H1       HT       0.417000        1.0080           0
     33723 WT2      5274     TIP3     H2       HT       0.417000        1.0080           0
     33724 WT2      5275     TIP3     OH2      OT      -0.834000       15.9994           0
     33725 WT2      5275     TIP3     H1       HT       0.417000        1.0080           0
     33726 WT2      5275     TIP3     H2       HT       0.417000        1.0080           0
     33727 WT2      5277     TIP3     OH2      OT      -0.834000       15.9994           0
     33728 WT2      5277     TIP3     H1       HT       0.417000        1.0080           0
     33729 WT2      5277     TIP3     H2       HT       0.417000        1.0080           0
     33730 WT2      5278     TIP3     OH2      OT      -0.834000       15.9994           0
     33731 WT2      5278     TIP3     H1       HT       0.417000        1.0080           0
     33732 WT2      5278     TIP3     H2       HT       0.417000        1.0080           0
     33733 WT2      5279     TIP3     OH2      OT      -0.834000       15.9994           0
     33734 WT2      5279     TIP3     H1       HT       0.417000        1.0080           0
     33735 WT2      5279     TIP3     H2       HT       0.417000        1.0080           0
     33736 WT2      5292     TIP3     OH2      OT      -0.834000       15.9994           0
     33737 WT2      5292     TIP3     H1       HT       0.417000        1.0080           0
     33738 WT2      5292     TIP3     H2       HT       0.417000        1.0080           0
     33739 WT2      5293     TIP3     OH2      OT      -0.834000       15.9994           0
     33740 WT2      5293     TIP3     H1       HT       0.417000        1.0080           0
     33741 WT2      5293     TIP3     H2       HT       0.417000        1.0080           0
     33742 WT2      5294     TIP3     OH2      OT      -0.834000       15.9994           0
     33743 WT2      5294     TIP3     H1       HT       0.417000        1.0080           0
     33744 WT2      5294     TIP3     H2       HT       0.417000        1.0080           0
     33745 WT2      5295     TIP3     OH2      OT      -0.834000       15.9994           0
     33746 WT2      5295     TIP3     H1       HT       0.417000        1.0080           0
     33747 WT2      5295     TIP3     H2       HT       0.417000        1.0080           0
     33748 WT2      5296     TIP3     OH2      OT      -0.834000       15.9994           0
     33749 WT2      5296     TIP3     H1       HT       0.417000        1.0080           0
     33750 WT2      5296     TIP3     H2       HT       0.417000        1.0080           0
     33751 WT2      5297     TIP3     OH2      OT      -0.834000       15.9994           0
     33752 WT2      5297     TIP3     H1       HT       0.417000        1.0080           0
     33753 WT2      5297     TIP3     H2       HT       0.417000        1.0080           0
     33754 WT2      5300     TIP3     OH2      OT      -0.834000       15.9994           0
     33755 WT2      5300     TIP3     H1       HT       0.417000        1.0080           0
     33756 WT2      5300     TIP3     H2       HT       0.417000        1.0080           0
     33757 WT2      5301     TIP3     OH2      OT      -0.834000       15.9994           0
     33758 WT2      5301     TIP3     H1       HT       0.417000        1.0080           0
     33759 WT2      5301     TIP3     H2       HT       0.417000        1.0080           0
     33760 WT2      5304     TIP3     OH2      OT      -0.834000       15.9994           0
     33761 WT2      5304     TIP3     H1       HT       0.417000        1.0080           0
     33762 WT2      5304     TIP3     H2       HT       0.417000        1.0080           0
     33763 WT2      5315     TIP3     OH2      OT      -0.834000       15.9994           0
     33764 WT2      5315     TIP3     H1       HT       0.417000        1.0080           0
     33765 WT2      5315     TIP3     H2       HT       0.417000        1.0080           0
     33766 WT2      5317     TIP3     OH2      OT      -0.834000       15.9994           0
     33767 WT2      5317     TIP3     H1       HT       0.417000        1.0080           0
     33768 WT2      5317     TIP3     H2       HT       0.417000        1.0080           0
     33769 WT2      5318     TIP3     OH2      OT      -0.834000       15.9994           0
     33770 WT2      5318     TIP3     H1       HT       0.417000        1.0080           0
     33771 WT2      5318     TIP3     H2       HT       0.417000        1.0080           0
     33772 WT2      5319     TIP3     OH2      OT      -0.834000       15.9994           0
     33773 WT2      5319     TIP3     H1       HT       0.417000        1.0080           0
     33774 WT2      5319     TIP3     H2       HT       0.417000        1.0080           0
     33775 WT2      5320     TIP3     OH2      OT      -0.834000       15.9994           0
     33776 WT2      5320     TIP3     H1       HT       0.417000        1.0080           0
     33777 WT2      5320     TIP3     H2       HT       0.417000        1.0080           0
     33778 WT2      5335     TIP3     OH2      OT      -0.834000       15.9994           0
     33779 WT2      5335     TIP3     H1       HT       0.417000        1.0080           0
     33780 WT2      5335     TIP3     H2       HT       0.417000        1.0080           0
     33781 WT2      5336     TIP3     OH2      OT      -0.834000       15.9994           0
     33782 WT2      5336     TIP3     H1       HT       0.417000        1.0080           0
     33783 WT2      5336     TIP3     H2       HT       0.417000        1.0080           0
     33784 WT2      5337     TIP3     OH2      OT      -0.834000       15.9994           0
     33785 WT2      5337     TIP3     H1       HT       0.417000        1.0080           0
     33786 WT2      5337     TIP3     H2       HT       0.417000        1.0080           0
     33787 WT2      5339     TIP3     OH2      OT      -0.834000       15.9994           0
     33788 WT2      5339     TIP3     H1       HT       0.417000        1.0080           0
     33789 WT2      5339     TIP3     H2       HT       0.417000        1.0080           0
     33790 WT2      5340     TIP3     OH2      OT      -0.834000       15.9994           0
     33791 WT2      5340     TIP3     H1       HT       0.417000        1.0080           0
     33792 WT2      5340     TIP3     H2       HT       0.417000        1.0080           0
     33793 WT2      5341     TIP3     OH2      OT      -0.834000       15.9994           0
     33794 WT2      5341     TIP3     H1       HT       0.417000        1.0080           0
     33795 WT2      5341     TIP3     H2       HT       0.417000        1.0080           0
     33796 WT2      5355     TIP3     OH2      OT      -0.834000       15.9994           0
     33797 WT2      5355     TIP3     H1       HT       0.417000        1.0080           0
     33798 WT2      5355     TIP3     H2       HT       0.417000        1.0080           0
     33799 WT2      5356     TIP3     OH2      OT      -0.834000       15.9994           0
     33800 WT2      5356     TIP3     H1       HT       0.417000        1.0080           0
     33801 WT2      5356     TIP3     H2       HT       0.417000        1.0080           0
     33802 WT2      5357     TIP3     OH2      OT      -0.834000       15.9994           0
     33803 WT2      5357     TIP3     H1       HT       0.417000        1.0080           0
     33804 WT2      5357     TIP3     H2       HT       0.417000        1.0080           0
     33805 WT2      5358     TIP3     OH2      OT      -0.834000       15.9994           0
     33806 WT2      5358     TIP3     H1       HT       0.417000        1.0080           0
     33807 WT2      5358     TIP3     H2       HT       0.417000        1.0080           0
     33808 WT2      5359     TIP3     OH2      OT      -0.834000       15.9994           0
     33809 WT2      5359     TIP3     H1       HT       0.417000        1.0080           0
     33810 WT2      5359     TIP3     H2       HT       0.417000        1.0080           0
     33811 WT2      5360     TIP3     OH2      OT      -0.834000       15.9994           0
     33812 WT2      5360     TIP3     H1       HT       0.417000        1.0080           0
     33813 WT2      5360     TIP3     H2       HT       0.417000        1.0080           0
     33814 WT2      5364     TIP3     OH2      OT      -0.834000       15.9994           0
     33815 WT2      5364     TIP3     H1       HT       0.417000        1.0080           0
     33816 WT2      5364     TIP3     H2       HT       0.417000        1.0080           0
     33817 WT2      5366     TIP3     OH2      OT      -0.834000       15.9994           0
     33818 WT2      5366     TIP3     H1       HT       0.417000        1.0080           0
     33819 WT2      5366     TIP3     H2       HT       0.417000        1.0080           0
     33820 WT2      5375     TIP3     OH2      OT      -0.834000       15.9994           0
     33821 WT2      5375     TIP3     H1       HT       0.417000        1.0080           0
     33822 WT2      5375     TIP3     H2       HT       0.417000        1.0080           0
     33823 WT2      5377     TIP3     OH2      OT      -0.834000       15.9994           0
     33824 WT2      5377     TIP3     H1       HT       0.417000        1.0080           0
     33825 WT2      5377     TIP3     H2       HT       0.417000        1.0080           0
     33826 WT2      5378     TIP3     OH2      OT      -0.834000       15.9994           0
     33827 WT2      5378     TIP3     H1       HT       0.417000        1.0080           0
     33828 WT2      5378     TIP3     H2       HT       0.417000        1.0080           0
     33829 WT2      5379     TIP3     OH2      OT      -0.834000       15.9994           0
     33830 WT2      5379     TIP3     H1       HT       0.417000        1.0080           0
     33831 WT2      5379     TIP3     H2       HT       0.417000        1.0080           0
     33832 WT2      5380     TIP3     OH2      OT      -0.834000       15.9994           0
     33833 WT2      5380     TIP3     H1       HT       0.417000        1.0080           0
     33834 WT2      5380     TIP3     H2       HT       0.417000        1.0080           0
     33835 WT2      5381     TIP3     OH2      OT      -0.834000       15.9994           0
     33836 WT2      5381     TIP3     H1       HT       0.417000        1.0080           0
     33837 WT2      5381     TIP3     H2       HT       0.417000        1.0080           0
     33838 WT2      5382     TIP3     OH2      OT      -0.834000       15.9994           0
     33839 WT2      5382     TIP3     H1       HT       0.417000        1.0080           0
     33840 WT2      5382     TIP3     H2       HT       0.417000        1.0080           0
     33841 WT2      5383     TIP3     OH2      OT      -0.834000       15.9994           0
     33842 WT2      5383     TIP3     H1       HT       0.417000        1.0080           0
     33843 WT2      5383     TIP3     H2       HT       0.417000        1.0080           0
     33844 WT2      5384     TIP3     OH2      OT      -0.834000       15.9994           0
     33845 WT2      5384     TIP3     H1       HT       0.417000        1.0080           0
     33846 WT2      5384     TIP3     H2       HT       0.417000        1.0080           0
     33847 WT2      5385     TIP3     OH2      OT      -0.834000       15.9994           0
     33848 WT2      5385     TIP3     H1       HT       0.417000        1.0080           0
     33849 WT2      5385     TIP3     H2       HT       0.417000        1.0080           0
     33850 WT2      5393     TIP3     OH2      OT      -0.834000       15.9994           0
     33851 WT2      5393     TIP3     H1       HT       0.417000        1.0080           0
     33852 WT2      5393     TIP3     H2       HT       0.417000        1.0080           0
     33853 WT2      5396     TIP3     OH2      OT      -0.834000       15.9994           0
     33854 WT2      5396     TIP3     H1       HT       0.417000        1.0080           0
     33855 WT2      5396     TIP3     H2       HT       0.417000        1.0080           0
     33856 WT2      5399     TIP3     OH2      OT      -0.834000       15.9994           0
     33857 WT2      5399     TIP3     H1       HT       0.417000        1.0080           0
     33858 WT2      5399     TIP3     H2       HT       0.417000        1.0080           0
     33859 WT2      5400     TIP3     OH2      OT      -0.834000       15.9994           0
     33860 WT2      5400     TIP3     H1       HT       0.417000        1.0080           0
     33861 WT2      5400     TIP3     H2       HT       0.417000        1.0080           0
     33862 WT2      5402     TIP3     OH2      OT      -0.834000       15.9994           0
     33863 WT2      5402     TIP3     H1       HT       0.417000        1.0080           0
     33864 WT2      5402     TIP3     H2       HT       0.417000        1.0080           0
     33865 WT2      5404     TIP3     OH2      OT      -0.834000       15.9994           0
     33866 WT2      5404     TIP3     H1       HT       0.417000        1.0080           0
     33867 WT2      5404     TIP3     H2       HT       0.417000        1.0080           0
     33868 WT2      5418     TIP3     OH2      OT      -0.834000       15.9994           0
     33869 WT2      5418     TIP3     H1       HT       0.417000        1.0080           0
     33870 WT2      5418     TIP3     H2       HT       0.417000        1.0080           0
     33871 WT2      5419     TIP3     OH2      OT      -0.834000       15.9994           0
     33872 WT2      5419     TIP3     H1       HT       0.417000        1.0080           0
     33873 WT2      5419     TIP3     H2       HT       0.417000        1.0080           0
     33874 WT2      5420     TIP3     OH2      OT      -0.834000       15.9994           0
     33875 WT2      5420     TIP3     H1       HT       0.417000        1.0080           0
     33876 WT2      5420     TIP3     H2       HT       0.417000        1.0080           0
     33877 WT2      5421     TIP3     OH2      OT      -0.834000       15.9994           0
     33878 WT2      5421     TIP3     H1       HT       0.417000        1.0080           0
     33879 WT2      5421     TIP3     H2       HT       0.417000        1.0080           0
     33880 WT2      5422     TIP3     OH2      OT      -0.834000       15.9994           0
     33881 WT2      5422     TIP3     H1       HT       0.417000        1.0080           0
     33882 WT2      5422     TIP3     H2       HT       0.417000        1.0080           0
     33883 WT2      5426     TIP3     OH2      OT      -0.834000       15.9994           0
     33884 WT2      5426     TIP3     H1       HT       0.417000        1.0080           0
     33885 WT2      5426     TIP3     H2       HT       0.417000        1.0080           0
     33886 WT2      5430     TIP3     OH2      OT      -0.834000       15.9994           0
     33887 WT2      5430     TIP3     H1       HT       0.417000        1.0080           0
     33888 WT2      5430     TIP3     H2       HT       0.417000        1.0080           0
     33889 WT2      5431     TIP3     OH2      OT      -0.834000       15.9994           0
     33890 WT2      5431     TIP3     H1       HT       0.417000        1.0080           0
     33891 WT2      5431     TIP3     H2       HT       0.417000        1.0080           0
     33892 WT2      5434     TIP3     OH2      OT      -0.834000       15.9994           0
     33893 WT2      5434     TIP3     H1       HT       0.417000        1.0080           0
     33894 WT2      5434     TIP3     H2       HT       0.417000        1.0080           0
     33895 WT2      5440     TIP3     OH2      OT      -0.834000       15.9994           0
     33896 WT2      5440     TIP3     H1       HT       0.417000        1.0080           0
     33897 WT2      5440     TIP3     H2       HT       0.417000        1.0080           0
     33898 WT2      5442     TIP3     OH2      OT      -0.834000       15.9994           0
     33899 WT2      5442     TIP3     H1       HT       0.417000        1.0080           0
     33900 WT2      5442     TIP3     H2       HT       0.417000        1.0080           0
     33901 WT2      5443     TIP3     OH2      OT      -0.834000       15.9994           0
     33902 WT2      5443     TIP3     H1       HT       0.417000        1.0080           0
     33903 WT2      5443     TIP3     H2       HT       0.417000        1.0080           0
     33904 WT2      5444     TIP3     OH2      OT      -0.834000       15.9994           0
     33905 WT2      5444     TIP3     H1       HT       0.417000        1.0080           0
     33906 WT2      5444     TIP3     H2       HT       0.417000        1.0080           0
     33907 WT2      5445     TIP3     OH2      OT      -0.834000       15.9994           0
     33908 WT2      5445     TIP3     H1       HT       0.417000        1.0080           0
     33909 WT2      5445     TIP3     H2       HT       0.417000        1.0080           0
     33910 WT2      5446     TIP3     OH2      OT      -0.834000       15.9994           0
     33911 WT2      5446     TIP3     H1       HT       0.417000        1.0080           0
     33912 WT2      5446     TIP3     H2       HT       0.417000        1.0080           0
     33913 WT2      5460     TIP3     OH2      OT      -0.834000       15.9994           0
     33914 WT2      5460     TIP3     H1       HT       0.417000        1.0080           0
     33915 WT2      5460     TIP3     H2       HT       0.417000        1.0080           0
     33916 WT2      5461     TIP3     OH2      OT      -0.834000       15.9994           0
     33917 WT2      5461     TIP3     H1       HT       0.417000        1.0080           0
     33918 WT2      5461     TIP3     H2       HT       0.417000        1.0080           0
     33919 WT2      5462     TIP3     OH2      OT      -0.834000       15.9994           0
     33920 WT2      5462     TIP3     H1       HT       0.417000        1.0080           0
     33921 WT2      5462     TIP3     H2       HT       0.417000        1.0080           0
     33922 WT2      5463     TIP3     OH2      OT      -0.834000       15.9994           0
     33923 WT2      5463     TIP3     H1       HT       0.417000        1.0080           0
     33924 WT2      5463     TIP3     H2       HT       0.417000        1.0080           0
     33925 WT2      5464     TIP3     OH2      OT      -0.834000       15.9994           0
     33926 WT2      5464     TIP3     H1       HT       0.417000        1.0080           0
     33927 WT2      5464     TIP3     H2       HT       0.417000        1.0080           0
     33928 WT2      5466     TIP3     OH2      OT      -0.834000       15.9994           0
     33929 WT2      5466     TIP3     H1       HT       0.417000        1.0080           0
     33930 WT2      5466     TIP3     H2       HT       0.417000        1.0080           0
     33931 WT2      5468     TIP3     OH2      OT      -0.834000       15.9994           0
     33932 WT2      5468     TIP3     H1       HT       0.417000        1.0080           0
     33933 WT2      5468     TIP3     H2       HT       0.417000        1.0080           0
     33934 WT2      5481     TIP3     OH2      OT      -0.834000       15.9994           0
     33935 WT2      5481     TIP3     H1       HT       0.417000        1.0080           0
     33936 WT2      5481     TIP3     H2       HT       0.417000        1.0080           0
     33937 WT2      5482     TIP3     OH2      OT      -0.834000       15.9994           0
     33938 WT2      5482     TIP3     H1       HT       0.417000        1.0080           0
     33939 WT2      5482     TIP3     H2       HT       0.417000        1.0080           0
     33940 WT2      5483     TIP3     OH2      OT      -0.834000       15.9994           0
     33941 WT2      5483     TIP3     H1       HT       0.417000        1.0080           0
     33942 WT2      5483     TIP3     H2       HT       0.417000        1.0080           0
     33943 WT2      5484     TIP3     OH2      OT      -0.834000       15.9994           0
     33944 WT2      5484     TIP3     H1       HT       0.417000        1.0080           0
     33945 WT2      5484     TIP3     H2       HT       0.417000        1.0080           0
     33946 WT2      5485     TIP3     OH2      OT      -0.834000       15.9994           0
     33947 WT2      5485     TIP3     H1       HT       0.417000        1.0080           0
     33948 WT2      5485     TIP3     H2       HT       0.417000        1.0080           0
     33949 WT2      5486     TIP3     OH2      OT      -0.834000       15.9994           0
     33950 WT2      5486     TIP3     H1       HT       0.417000        1.0080           0
     33951 WT2      5486     TIP3     H2       HT       0.417000        1.0080           0
     33952 WT2      5487     TIP3     OH2      OT      -0.834000       15.9994           0
     33953 WT2      5487     TIP3     H1       HT       0.417000        1.0080           0
     33954 WT2      5487     TIP3     H2       HT       0.417000        1.0080           0
     33955 WT2      5488     TIP3     OH2      OT      -0.834000       15.9994           0
     33956 WT2      5488     TIP3     H1       HT       0.417000        1.0080           0
     33957 WT2      5488     TIP3     H2       HT       0.417000        1.0080           0
     33958 WT2      5504     TIP3     OH2      OT      -0.834000       15.9994           0
     33959 WT2      5504     TIP3     H1       HT       0.417000        1.0080           0
     33960 WT2      5504     TIP3     H2       HT       0.417000        1.0080           0
     33961 WT2      5505     TIP3     OH2      OT      -0.834000       15.9994           0
     33962 WT2      5505     TIP3     H1       HT       0.417000        1.0080           0
     33963 WT2      5505     TIP3     H2       HT       0.417000        1.0080           0
     33964 WT2      5506     TIP3     OH2      OT      -0.834000       15.9994           0
     33965 WT2      5506     TIP3     H1       HT       0.417000        1.0080           0
     33966 WT2      5506     TIP3     H2       HT       0.417000        1.0080           0
     33967 WT2      5507     TIP3     OH2      OT      -0.834000       15.9994           0
     33968 WT2      5507     TIP3     H1       HT       0.417000        1.0080           0
     33969 WT2      5507     TIP3     H2       HT       0.417000        1.0080           0
     33970 WT2      5510     TIP3     OH2      OT      -0.834000       15.9994           0
     33971 WT2      5510     TIP3     H1       HT       0.417000        1.0080           0
     33972 WT2      5510     TIP3     H2       HT       0.417000        1.0080           0
     33973 WT2      5522     TIP3     OH2      OT      -0.834000       15.9994           0
     33974 WT2      5522     TIP3     H1       HT       0.417000        1.0080           0
     33975 WT2      5522     TIP3     H2       HT       0.417000        1.0080           0
     33976 WT2      5526     TIP3     OH2      OT      -0.834000       15.9994           0
     33977 WT2      5526     TIP3     H1       HT       0.417000        1.0080           0
     33978 WT2      5526     TIP3     H2       HT       0.417000        1.0080           0
     33979 WT2      5527     TIP3     OH2      OT      -0.834000       15.9994           0
     33980 WT2      5527     TIP3     H1       HT       0.417000        1.0080           0
     33981 WT2      5527     TIP3     H2       HT       0.417000        1.0080           0
     33982 WT2      5528     TIP3     OH2      OT      -0.834000       15.9994           0
     33983 WT2      5528     TIP3     H1       HT       0.417000        1.0080           0
     33984 WT2      5528     TIP3     H2       HT       0.417000        1.0080           0
     33985 WT2      5530     TIP3     OH2      OT      -0.834000       15.9994           0
     33986 WT2      5530     TIP3     H1       HT       0.417000        1.0080           0
     33987 WT2      5530     TIP3     H2       HT       0.417000        1.0080           0
     33988 WT2      5533     TIP3     OH2      OT      -0.834000       15.9994           0
     33989 WT2      5533     TIP3     H1       HT       0.417000        1.0080           0
     33990 WT2      5533     TIP3     H2       HT       0.417000        1.0080           0
     33991 WT2      5545     TIP3     OH2      OT      -0.834000       15.9994           0
     33992 WT2      5545     TIP3     H1       HT       0.417000        1.0080           0
     33993 WT2      5545     TIP3     H2       HT       0.417000        1.0080           0
     33994 WT2      5547     TIP3     OH2      OT      -0.834000       15.9994           0
     33995 WT2      5547     TIP3     H1       HT       0.417000        1.0080           0
     33996 WT2      5547     TIP3     H2       HT       0.417000        1.0080           0
     33997 WT2      5548     TIP3     OH2      OT      -0.834000       15.9994           0
     33998 WT2      5548     TIP3     H1       HT       0.417000        1.0080           0
     33999 WT2      5548     TIP3     H2       HT       0.417000        1.0080           0
     34000 WT2      5549     TIP3     OH2      OT      -0.834000       15.9994           0
     34001 WT2      5549     TIP3     H1       HT       0.417000        1.0080           0
     34002 WT2      5549     TIP3     H2       HT       0.417000        1.0080           0
     34003 WT2      5550     TIP3     OH2      OT      -0.834000       15.9994           0
     34004 WT2      5550     TIP3     H1       HT       0.417000        1.0080           0
     34005 WT2      5550     TIP3     H2       HT       0.417000        1.0080           0
     34006 WT2      5551     TIP3     OH2      OT      -0.834000       15.9994           0
     34007 WT2      5551     TIP3     H1       HT       0.417000        1.0080           0
     34008 WT2      5551     TIP3     H2       HT       0.417000        1.0080           0
     34009 WT2      5552     TIP3     OH2      OT      -0.834000       15.9994           0
     34010 WT2      5552     TIP3     H1       HT       0.417000        1.0080           0
     34011 WT2      5552     TIP3     H2       HT       0.417000        1.0080           0
     34012 WT2      5553     TIP3     OH2      OT      -0.834000       15.9994           0
     34013 WT2      5553     TIP3     H1       HT       0.417000        1.0080           0
     34014 WT2      5553     TIP3     H2       HT       0.417000        1.0080           0
     34015 WT2      5554     TIP3     OH2      OT      -0.834000       15.9994           0
     34016 WT2      5554     TIP3     H1       HT       0.417000        1.0080           0
     34017 WT2      5554     TIP3     H2       HT       0.417000        1.0080           0
     34018 WT2      5558     TIP3     OH2      OT      -0.834000       15.9994           0
     34019 WT2      5558     TIP3     H1       HT       0.417000        1.0080           0
     34020 WT2      5558     TIP3     H2       HT       0.417000        1.0080           0
     34021 WT2      5564     TIP3     OH2      OT      -0.834000       15.9994           0
     34022 WT2      5564     TIP3     H1       HT       0.417000        1.0080           0
     34023 WT2      5564     TIP3     H2       HT       0.417000        1.0080           0
     34024 WT2      5566     TIP3     OH2      OT      -0.834000       15.9994           0
     34025 WT2      5566     TIP3     H1       HT       0.417000        1.0080           0
     34026 WT2      5566     TIP3     H2       HT       0.417000        1.0080           0
     34027 WT2      5567     TIP3     OH2      OT      -0.834000       15.9994           0
     34028 WT2      5567     TIP3     H1       HT       0.417000        1.0080           0
     34029 WT2      5567     TIP3     H2       HT       0.417000        1.0080           0
     34030 WT2      5568     TIP3     OH2      OT      -0.834000       15.9994           0
     34031 WT2      5568     TIP3     H1       HT       0.417000        1.0080           0
     34032 WT2      5568     TIP3     H2       HT       0.417000        1.0080           0
     34033 WT2      5569     TIP3     OH2      OT      -0.834000       15.9994           0
     34034 WT2      5569     TIP3     H1       HT       0.417000        1.0080           0
     34035 WT2      5569     TIP3     H2       HT       0.417000        1.0080           0
     34036 WT2      5570     TIP3     OH2      OT      -0.834000       15.9994           0
     34037 WT2      5570     TIP3     H1       HT       0.417000        1.0080           0
     34038 WT2      5570     TIP3     H2       HT       0.417000        1.0080           0
     34039 WT2      5571     TIP3     OH2      OT      -0.834000       15.9994           0
     34040 WT2      5571     TIP3     H1       HT       0.417000        1.0080           0
     34041 WT2      5571     TIP3     H2       HT       0.417000        1.0080           0
     34042 WT2      5572     TIP3     OH2      OT      -0.834000       15.9994           0
     34043 WT2      5572     TIP3     H1       HT       0.417000        1.0080           0
     34044 WT2      5572     TIP3     H2       HT       0.417000        1.0080           0
     34045 WT2      5573     TIP3     OH2      OT      -0.834000       15.9994           0
     34046 WT2      5573     TIP3     H1       HT       0.417000        1.0080           0
     34047 WT2      5573     TIP3     H2       HT       0.417000        1.0080           0
     34048 WT2      5585     TIP3     OH2      OT      -0.834000       15.9994           0
     34049 WT2      5585     TIP3     H1       HT       0.417000        1.0080           0
     34050 WT2      5585     TIP3     H2       HT       0.417000        1.0080           0
     34051 WT2      5590     TIP3     OH2      OT      -0.834000       15.9994           0
     34052 WT2      5590     TIP3     H1       HT       0.417000        1.0080           0
     34053 WT2      5590     TIP3     H2       HT       0.417000        1.0080           0
     34054 WT2      5591     TIP3     OH2      OT      -0.834000       15.9994           0
     34055 WT2      5591     TIP3     H1       HT       0.417000        1.0080           0
     34056 WT2      5591     TIP3     H2       HT       0.417000        1.0080           0
     34057 WT2      5592     TIP3     OH2      OT      -0.834000       15.9994           0
     34058 WT2      5592     TIP3     H1       HT       0.417000        1.0080           0
     34059 WT2      5592     TIP3     H2       HT       0.417000        1.0080           0
     34060 WT2      5594     TIP3     OH2      OT      -0.834000       15.9994           0
     34061 WT2      5594     TIP3     H1       HT       0.417000        1.0080           0
     34062 WT2      5594     TIP3     H2       HT       0.417000        1.0080           0
     34063 WT2      5595     TIP3     OH2      OT      -0.834000       15.9994           0
     34064 WT2      5595     TIP3     H1       HT       0.417000        1.0080           0
     34065 WT2      5595     TIP3     H2       HT       0.417000        1.0080           0
     34066 WT2      5596     TIP3     OH2      OT      -0.834000       15.9994           0
     34067 WT2      5596     TIP3     H1       HT       0.417000        1.0080           0
     34068 WT2      5596     TIP3     H2       HT       0.417000        1.0080           0
     34069 WT2      5606     TIP3     OH2      OT      -0.834000       15.9994           0
     34070 WT2      5606     TIP3     H1       HT       0.417000        1.0080           0
     34071 WT2      5606     TIP3     H2       HT       0.417000        1.0080           0
     34072 WT2      5607     TIP3     OH2      OT      -0.834000       15.9994           0
     34073 WT2      5607     TIP3     H1       HT       0.417000        1.0080           0
     34074 WT2      5607     TIP3     H2       HT       0.417000        1.0080           0
     34075 WT2      5608     TIP3     OH2      OT      -0.834000       15.9994           0
     34076 WT2      5608     TIP3     H1       HT       0.417000        1.0080           0
     34077 WT2      5608     TIP3     H2       HT       0.417000        1.0080           0
     34078 WT2      5609     TIP3     OH2      OT      -0.834000       15.9994           0
     34079 WT2      5609     TIP3     H1       HT       0.417000        1.0080           0
     34080 WT2      5609     TIP3     H2       HT       0.417000        1.0080           0
     34081 WT2      5610     TIP3     OH2      OT      -0.834000       15.9994           0
     34082 WT2      5610     TIP3     H1       HT       0.417000        1.0080           0
     34083 WT2      5610     TIP3     H2       HT       0.417000        1.0080           0
     34084 WT2      5611     TIP3     OH2      OT      -0.834000       15.9994           0
     34085 WT2      5611     TIP3     H1       HT       0.417000        1.0080           0
     34086 WT2      5611     TIP3     H2       HT       0.417000        1.0080           0
     34087 WT2      5612     TIP3     OH2      OT      -0.834000       15.9994           0
     34088 WT2      5612     TIP3     H1       HT       0.417000        1.0080           0
     34089 WT2      5612     TIP3     H2       HT       0.417000        1.0080           0
     34090 WT2      5613     TIP3     OH2      OT      -0.834000       15.9994           0
     34091 WT2      5613     TIP3     H1       HT       0.417000        1.0080           0
     34092 WT2      5613     TIP3     H2       HT       0.417000        1.0080           0
     34093 WT2      5614     TIP3     OH2      OT      -0.834000       15.9994           0
     34094 WT2      5614     TIP3     H1       HT       0.417000        1.0080           0
     34095 WT2      5614     TIP3     H2       HT       0.417000        1.0080           0
     34096 WT2      5615     TIP3     OH2      OT      -0.834000       15.9994           0
     34097 WT2      5615     TIP3     H1       HT       0.417000        1.0080           0
     34098 WT2      5615     TIP3     H2       HT       0.417000        1.0080           0
     34099 WT2      5616     TIP3     OH2      OT      -0.834000       15.9994           0
     34100 WT2      5616     TIP3     H1       HT       0.417000        1.0080           0
     34101 WT2      5616     TIP3     H2       HT       0.417000        1.0080           0
     34102 WT2      5618     TIP3     OH2      OT      -0.834000       15.9994           0
     34103 WT2      5618     TIP3     H1       HT       0.417000        1.0080           0
     34104 WT2      5618     TIP3     H2       HT       0.417000        1.0080           0
     34105 WT2      5626     TIP3     OH2      OT      -0.834000       15.9994           0
     34106 WT2      5626     TIP3     H1       HT       0.417000        1.0080           0
     34107 WT2      5626     TIP3     H2       HT       0.417000        1.0080           0
     34108 WT2      5630     TIP3     OH2      OT      -0.834000       15.9994           0
     34109 WT2      5630     TIP3     H1       HT       0.417000        1.0080           0
     34110 WT2      5630     TIP3     H2       HT       0.417000        1.0080           0
     34111 WT2      5631     TIP3     OH2      OT      -0.834000       15.9994           0
     34112 WT2      5631     TIP3     H1       HT       0.417000        1.0080           0
     34113 WT2      5631     TIP3     H2       HT       0.417000        1.0080           0
     34114 WT2      5632     TIP3     OH2      OT      -0.834000       15.9994           0
     34115 WT2      5632     TIP3     H1       HT       0.417000        1.0080           0
     34116 WT2      5632     TIP3     H2       HT       0.417000        1.0080           0
     34117 WT2      5633     TIP3     OH2      OT      -0.834000       15.9994           0
     34118 WT2      5633     TIP3     H1       HT       0.417000        1.0080           0
     34119 WT2      5633     TIP3     H2       HT       0.417000        1.0080           0
     34120 WT2      5634     TIP3     OH2      OT      -0.834000       15.9994           0
     34121 WT2      5634     TIP3     H1       HT       0.417000        1.0080           0
     34122 WT2      5634     TIP3     H2       HT       0.417000        1.0080           0
     34123 WT2      5635     TIP3     OH2      OT      -0.834000       15.9994           0
     34124 WT2      5635     TIP3     H1       HT       0.417000        1.0080           0
     34125 WT2      5635     TIP3     H2       HT       0.417000        1.0080           0
     34126 WT2      5636     TIP3     OH2      OT      -0.834000       15.9994           0
     34127 WT2      5636     TIP3     H1       HT       0.417000        1.0080           0
     34128 WT2      5636     TIP3     H2       HT       0.417000        1.0080           0
     34129 WT2      5637     TIP3     OH2      OT      -0.834000       15.9994           0
     34130 WT2      5637     TIP3     H1       HT       0.417000        1.0080           0
     34131 WT2      5637     TIP3     H2       HT       0.417000        1.0080           0
     34132 WT2      5647     TIP3     OH2      OT      -0.834000       15.9994           0
     34133 WT2      5647     TIP3     H1       HT       0.417000        1.0080           0
     34134 WT2      5647     TIP3     H2       HT       0.417000        1.0080           0
     34135 WT2      5650     TIP3     OH2      OT      -0.834000       15.9994           0
     34136 WT2      5650     TIP3     H1       HT       0.417000        1.0080           0
     34137 WT2      5650     TIP3     H2       HT       0.417000        1.0080           0
     34138 WT2      5651     TIP3     OH2      OT      -0.834000       15.9994           0
     34139 WT2      5651     TIP3     H1       HT       0.417000        1.0080           0
     34140 WT2      5651     TIP3     H2       HT       0.417000        1.0080           0
     34141 WT2      5653     TIP3     OH2      OT      -0.834000       15.9994           0
     34142 WT2      5653     TIP3     H1       HT       0.417000        1.0080           0
     34143 WT2      5653     TIP3     H2       HT       0.417000        1.0080           0
     34144 WT2      5654     TIP3     OH2      OT      -0.834000       15.9994           0
     34145 WT2      5654     TIP3     H1       HT       0.417000        1.0080           0
     34146 WT2      5654     TIP3     H2       HT       0.417000        1.0080           0
     34147 WT2      5655     TIP3     OH2      OT      -0.834000       15.9994           0
     34148 WT2      5655     TIP3     H1       HT       0.417000        1.0080           0
     34149 WT2      5655     TIP3     H2       HT       0.417000        1.0080           0
     34150 WT2      5656     TIP3     OH2      OT      -0.834000       15.9994           0
     34151 WT2      5656     TIP3     H1       HT       0.417000        1.0080           0
     34152 WT2      5656     TIP3     H2       HT       0.417000        1.0080           0
     34153 WT2      5669     TIP3     OH2      OT      -0.834000       15.9994           0
     34154 WT2      5669     TIP3     H1       HT       0.417000        1.0080           0
     34155 WT2      5669     TIP3     H2       HT       0.417000        1.0080           0
     34156 WT2      5672     TIP3     OH2      OT      -0.834000       15.9994           0
     34157 WT2      5672     TIP3     H1       HT       0.417000        1.0080           0
     34158 WT2      5672     TIP3     H2       HT       0.417000        1.0080           0
     34159 WT2      5673     TIP3     OH2      OT      -0.834000       15.9994           0
     34160 WT2      5673     TIP3     H1       HT       0.417000        1.0080           0
     34161 WT2      5673     TIP3     H2       HT       0.417000        1.0080           0
     34162 WT2      5674     TIP3     OH2      OT      -0.834000       15.9994           0
     34163 WT2      5674     TIP3     H1       HT       0.417000        1.0080           0
     34164 WT2      5674     TIP3     H2       HT       0.417000        1.0080           0
     34165 WT2      5675     TIP3     OH2      OT      -0.834000       15.9994           0
     34166 WT2      5675     TIP3     H1       HT       0.417000        1.0080           0
     34167 WT2      5675     TIP3     H2       HT       0.417000        1.0080           0
     34168 WT2      5676     TIP3     OH2      OT      -0.834000       15.9994           0
     34169 WT2      5676     TIP3     H1       HT       0.417000        1.0080           0
     34170 WT2      5676     TIP3     H2       HT       0.417000        1.0080           0
     34171 WT2      5678     TIP3     OH2      OT      -0.834000       15.9994           0
     34172 WT2      5678     TIP3     H1       HT       0.417000        1.0080           0
     34173 WT2      5678     TIP3     H2       HT       0.417000        1.0080           0
     34174 WT2      5679     TIP3     OH2      OT      -0.834000       15.9994           0
     34175 WT2      5679     TIP3     H1       HT       0.417000        1.0080           0
     34176 WT2      5679     TIP3     H2       HT       0.417000        1.0080           0
     34177 WT2      5687     TIP3     OH2      OT      -0.834000       15.9994           0
     34178 WT2      5687     TIP3     H1       HT       0.417000        1.0080           0
     34179 WT2      5687     TIP3     H2       HT       0.417000        1.0080           0
     34180 WT2      5690     TIP3     OH2      OT      -0.834000       15.9994           0
     34181 WT2      5690     TIP3     H1       HT       0.417000        1.0080           0
     34182 WT2      5690     TIP3     H2       HT       0.417000        1.0080           0
     34183 WT2      5692     TIP3     OH2      OT      -0.834000       15.9994           0
     34184 WT2      5692     TIP3     H1       HT       0.417000        1.0080           0
     34185 WT2      5692     TIP3     H2       HT       0.417000        1.0080           0
     34186 WT2      5693     TIP3     OH2      OT      -0.834000       15.9994           0
     34187 WT2      5693     TIP3     H1       HT       0.417000        1.0080           0
     34188 WT2      5693     TIP3     H2       HT       0.417000        1.0080           0
     34189 WT2      5694     TIP3     OH2      OT      -0.834000       15.9994           0
     34190 WT2      5694     TIP3     H1       HT       0.417000        1.0080           0
     34191 WT2      5694     TIP3     H2       HT       0.417000        1.0080           0
     34192 WT2      5695     TIP3     OH2      OT      -0.834000       15.9994           0
     34193 WT2      5695     TIP3     H1       HT       0.417000        1.0080           0
     34194 WT2      5695     TIP3     H2       HT       0.417000        1.0080           0
     34195 WT2      5697     TIP3     OH2      OT      -0.834000       15.9994           0
     34196 WT2      5697     TIP3     H1       HT       0.417000        1.0080           0
     34197 WT2      5697     TIP3     H2       HT       0.417000        1.0080           0
     34198 WT2      5700     TIP3     OH2      OT      -0.834000       15.9994           0
     34199 WT2      5700     TIP3     H1       HT       0.417000        1.0080           0
     34200 WT2      5700     TIP3     H2       HT       0.417000        1.0080           0
     34201 WT2      5702     TIP3     OH2      OT      -0.834000       15.9994           0
     34202 WT2      5702     TIP3     H1       HT       0.417000        1.0080           0
     34203 WT2      5702     TIP3     H2       HT       0.417000        1.0080           0
     34204 WT2      5710     TIP3     OH2      OT      -0.834000       15.9994           0
     34205 WT2      5710     TIP3     H1       HT       0.417000        1.0080           0
     34206 WT2      5710     TIP3     H2       HT       0.417000        1.0080           0
     34207 WT2      5711     TIP3     OH2      OT      -0.834000       15.9994           0
     34208 WT2      5711     TIP3     H1       HT       0.417000        1.0080           0
     34209 WT2      5711     TIP3     H2       HT       0.417000        1.0080           0
     34210 WT2      5713     TIP3     OH2      OT      -0.834000       15.9994           0
     34211 WT2      5713     TIP3     H1       HT       0.417000        1.0080           0
     34212 WT2      5713     TIP3     H2       HT       0.417000        1.0080           0
     34213 WT2      5714     TIP3     OH2      OT      -0.834000       15.9994           0
     34214 WT2      5714     TIP3     H1       HT       0.417000        1.0080           0
     34215 WT2      5714     TIP3     H2       HT       0.417000        1.0080           0
     34216 WT2      5716     TIP3     OH2      OT      -0.834000       15.9994           0
     34217 WT2      5716     TIP3     H1       HT       0.417000        1.0080           0
     34218 WT2      5716     TIP3     H2       HT       0.417000        1.0080           0
     34219 WT2      5717     TIP3     OH2      OT      -0.834000       15.9994           0
     34220 WT2      5717     TIP3     H1       HT       0.417000        1.0080           0
     34221 WT2      5717     TIP3     H2       HT       0.417000        1.0080           0
     34222 WT2      5720     TIP3     OH2      OT      -0.834000       15.9994           0
     34223 WT2      5720     TIP3     H1       HT       0.417000        1.0080           0
     34224 WT2      5720     TIP3     H2       HT       0.417000        1.0080           0
     34225 WT2      5723     TIP3     OH2      OT      -0.834000       15.9994           0
     34226 WT2      5723     TIP3     H1       HT       0.417000        1.0080           0
     34227 WT2      5723     TIP3     H2       HT       0.417000        1.0080           0
     34228 WT2      5730     TIP3     OH2      OT      -0.834000       15.9994           0
     34229 WT2      5730     TIP3     H1       HT       0.417000        1.0080           0
     34230 WT2      5730     TIP3     H2       HT       0.417000        1.0080           0
     34231 WT2      5734     TIP3     OH2      OT      -0.834000       15.9994           0
     34232 WT2      5734     TIP3     H1       HT       0.417000        1.0080           0
     34233 WT2      5734     TIP3     H2       HT       0.417000        1.0080           0
     34234 WT2      5735     TIP3     OH2      OT      -0.834000       15.9994           0
     34235 WT2      5735     TIP3     H1       HT       0.417000        1.0080           0
     34236 WT2      5735     TIP3     H2       HT       0.417000        1.0080           0
     34237 WT2      5736     TIP3     OH2      OT      -0.834000       15.9994           0
     34238 WT2      5736     TIP3     H1       HT       0.417000        1.0080           0
     34239 WT2      5736     TIP3     H2       HT       0.417000        1.0080           0
     34240 WT2      5738     TIP3     OH2      OT      -0.834000       15.9994           0
     34241 WT2      5738     TIP3     H1       HT       0.417000        1.0080           0
     34242 WT2      5738     TIP3     H2       HT       0.417000        1.0080           0
     34243 WT2      5739     TIP3     OH2      OT      -0.834000       15.9994           0
     34244 WT2      5739     TIP3     H1       HT       0.417000        1.0080           0
     34245 WT2      5739     TIP3     H2       HT       0.417000        1.0080           0
     34246 WT2      5740     TIP3     OH2      OT      -0.834000       15.9994           0
     34247 WT2      5740     TIP3     H1       HT       0.417000        1.0080           0
     34248 WT2      5740     TIP3     H2       HT       0.417000        1.0080           0
     34249 WT2      5743     TIP3     OH2      OT      -0.834000       15.9994           0
     34250 WT2      5743     TIP3     H1       HT       0.417000        1.0080           0
     34251 WT2      5743     TIP3     H2       HT       0.417000        1.0080           0
     34252 WT2      5755     TIP3     OH2      OT      -0.834000       15.9994           0
     34253 WT2      5755     TIP3     H1       HT       0.417000        1.0080           0
     34254 WT2      5755     TIP3     H2       HT       0.417000        1.0080           0
     34255 WT2      5756     TIP3     OH2      OT      -0.834000       15.9994           0
     34256 WT2      5756     TIP3     H1       HT       0.417000        1.0080           0
     34257 WT2      5756     TIP3     H2       HT       0.417000        1.0080           0
     34258 WT2      5758     TIP3     OH2      OT      -0.834000       15.9994           0
     34259 WT2      5758     TIP3     H1       HT       0.417000        1.0080           0
     34260 WT2      5758     TIP3     H2       HT       0.417000        1.0080           0
     34261 WT2      5759     TIP3     OH2      OT      -0.834000       15.9994           0
     34262 WT2      5759     TIP3     H1       HT       0.417000        1.0080           0
     34263 WT2      5759     TIP3     H2       HT       0.417000        1.0080           0
     34264 WT2      5761     TIP3     OH2      OT      -0.834000       15.9994           0
     34265 WT2      5761     TIP3     H1       HT       0.417000        1.0080           0
     34266 WT2      5761     TIP3     H2       HT       0.417000        1.0080           0
     34267 WT2      5762     TIP3     OH2      OT      -0.834000       15.9994           0
     34268 WT2      5762     TIP3     H1       HT       0.417000        1.0080           0
     34269 WT2      5762     TIP3     H2       HT       0.417000        1.0080           0
     34270 WT2      5764     TIP3     OH2      OT      -0.834000       15.9994           0
     34271 WT2      5764     TIP3     H1       HT       0.417000        1.0080           0
     34272 WT2      5764     TIP3     H2       HT       0.417000        1.0080           0
     34273 WT2      5767     TIP3     OH2      OT      -0.834000       15.9994           0
     34274 WT2      5767     TIP3     H1       HT       0.417000        1.0080           0
     34275 WT2      5767     TIP3     H2       HT       0.417000        1.0080           0
     34276 WT2      5768     TIP3     OH2      OT      -0.834000       15.9994           0
     34277 WT2      5768     TIP3     H1       HT       0.417000        1.0080           0
     34278 WT2      5768     TIP3     H2       HT       0.417000        1.0080           0
     34279 WT2      5775     TIP3     OH2      OT      -0.834000       15.9994           0
     34280 WT2      5775     TIP3     H1       HT       0.417000        1.0080           0
     34281 WT2      5775     TIP3     H2       HT       0.417000        1.0080           0
     34282 WT2      5777     TIP3     OH2      OT      -0.834000       15.9994           0
     34283 WT2      5777     TIP3     H1       HT       0.417000        1.0080           0
     34284 WT2      5777     TIP3     H2       HT       0.417000        1.0080           0
     34285 WT2      5778     TIP3     OH2      OT      -0.834000       15.9994           0
     34286 WT2      5778     TIP3     H1       HT       0.417000        1.0080           0
     34287 WT2      5778     TIP3     H2       HT       0.417000        1.0080           0
     34288 WT2      5779     TIP3     OH2      OT      -0.834000       15.9994           0
     34289 WT2      5779     TIP3     H1       HT       0.417000        1.0080           0
     34290 WT2      5779     TIP3     H2       HT       0.417000        1.0080           0
     34291 WT2      5780     TIP3     OH2      OT      -0.834000       15.9994           0
     34292 WT2      5780     TIP3     H1       HT       0.417000        1.0080           0
     34293 WT2      5780     TIP3     H2       HT       0.417000        1.0080           0
     34294 WT2      5795     TIP3     OH2      OT      -0.834000       15.9994           0
     34295 WT2      5795     TIP3     H1       HT       0.417000        1.0080           0
     34296 WT2      5795     TIP3     H2       HT       0.417000        1.0080           0
     34297 WT2      5797     TIP3     OH2      OT      -0.834000       15.9994           0
     34298 WT2      5797     TIP3     H1       HT       0.417000        1.0080           0
     34299 WT2      5797     TIP3     H2       HT       0.417000        1.0080           0
     34300 WT2      5798     TIP3     OH2      OT      -0.834000       15.9994           0
     34301 WT2      5798     TIP3     H1       HT       0.417000        1.0080           0
     34302 WT2      5798     TIP3     H2       HT       0.417000        1.0080           0
     34303 WT2      5799     TIP3     OH2      OT      -0.834000       15.9994           0
     34304 WT2      5799     TIP3     H1       HT       0.417000        1.0080           0
     34305 WT2      5799     TIP3     H2       HT       0.417000        1.0080           0
     34306 WT2      5800     TIP3     OH2      OT      -0.834000       15.9994           0
     34307 WT2      5800     TIP3     H1       HT       0.417000        1.0080           0
     34308 WT2      5800     TIP3     H2       HT       0.417000        1.0080           0
     34309 WT2      5801     TIP3     OH2      OT      -0.834000       15.9994           0
     34310 WT2      5801     TIP3     H1       HT       0.417000        1.0080           0
     34311 WT2      5801     TIP3     H2       HT       0.417000        1.0080           0
     34312 WT2      5802     TIP3     OH2      OT      -0.834000       15.9994           0
     34313 WT2      5802     TIP3     H1       HT       0.417000        1.0080           0
     34314 WT2      5802     TIP3     H2       HT       0.417000        1.0080           0
     34315 WT2      5818     TIP3     OH2      OT      -0.834000       15.9994           0
     34316 WT2      5818     TIP3     H1       HT       0.417000        1.0080           0
     34317 WT2      5818     TIP3     H2       HT       0.417000        1.0080           0
     34318 WT2      5819     TIP3     OH2      OT      -0.834000       15.9994           0
     34319 WT2      5819     TIP3     H1       HT       0.417000        1.0080           0
     34320 WT2      5819     TIP3     H2       HT       0.417000        1.0080           0
     34321 WT2      5820     TIP3     OH2      OT      -0.834000       15.9994           0
     34322 WT2      5820     TIP3     H1       HT       0.417000        1.0080           0
     34323 WT2      5820     TIP3     H2       HT       0.417000        1.0080           0
     34324 WT2      5821     TIP3     OH2      OT      -0.834000       15.9994           0
     34325 WT2      5821     TIP3     H1       HT       0.417000        1.0080           0
     34326 WT2      5821     TIP3     H2       HT       0.417000        1.0080           0
     34327 WT2      5822     TIP3     OH2      OT      -0.834000       15.9994           0
     34328 WT2      5822     TIP3     H1       HT       0.417000        1.0080           0
     34329 WT2      5822     TIP3     H2       HT       0.417000        1.0080           0
     34330 WT2      5823     TIP3     OH2      OT      -0.834000       15.9994           0
     34331 WT2      5823     TIP3     H1       HT       0.417000        1.0080           0
     34332 WT2      5823     TIP3     H2       HT       0.417000        1.0080           0
     34333 WT2      5825     TIP3     OH2      OT      -0.834000       15.9994           0
     34334 WT2      5825     TIP3     H1       HT       0.417000        1.0080           0
     34335 WT2      5825     TIP3     H2       HT       0.417000        1.0080           0
     34336 WT2      5827     TIP3     OH2      OT      -0.834000       15.9994           0
     34337 WT2      5827     TIP3     H1       HT       0.417000        1.0080           0
     34338 WT2      5827     TIP3     H2       HT       0.417000        1.0080           0
     34339 WT2      5828     TIP3     OH2      OT      -0.834000       15.9994           0
     34340 WT2      5828     TIP3     H1       HT       0.417000        1.0080           0
     34341 WT2      5828     TIP3     H2       HT       0.417000        1.0080           0
     34342 WT2      5836     TIP3     OH2      OT      -0.834000       15.9994           0
     34343 WT2      5836     TIP3     H1       HT       0.417000        1.0080           0
     34344 WT2      5836     TIP3     H2       HT       0.417000        1.0080           0
     34345 WT2      5837     TIP3     OH2      OT      -0.834000       15.9994           0
     34346 WT2      5837     TIP3     H1       HT       0.417000        1.0080           0
     34347 WT2      5837     TIP3     H2       HT       0.417000        1.0080           0
     34348 WT2      5839     TIP3     OH2      OT      -0.834000       15.9994           0
     34349 WT2      5839     TIP3     H1       HT       0.417000        1.0080           0
     34350 WT2      5839     TIP3     H2       HT       0.417000        1.0080           0
     34351 WT2      5840     TIP3     OH2      OT      -0.834000       15.9994           0
     34352 WT2      5840     TIP3     H1       HT       0.417000        1.0080           0
     34353 WT2      5840     TIP3     H2       HT       0.417000        1.0080           0
     34354 WT2      5841     TIP3     OH2      OT      -0.834000       15.9994           0
     34355 WT2      5841     TIP3     H1       HT       0.417000        1.0080           0
     34356 WT2      5841     TIP3     H2       HT       0.417000        1.0080           0
     34357 WT2      5843     TIP3     OH2      OT      -0.834000       15.9994           0
     34358 WT2      5843     TIP3     H1       HT       0.417000        1.0080           0
     34359 WT2      5843     TIP3     H2       HT       0.417000        1.0080           0
     34360 WT2      5844     TIP3     OH2      OT      -0.834000       15.9994           0
     34361 WT2      5844     TIP3     H1       HT       0.417000        1.0080           0
     34362 WT2      5844     TIP3     H2       HT       0.417000        1.0080           0
     34363 WT2      5846     TIP3     OH2      OT      -0.834000       15.9994           0
     34364 WT2      5846     TIP3     H1       HT       0.417000        1.0080           0
     34365 WT2      5846     TIP3     H2       HT       0.417000        1.0080           0
     34366 WT2      5859     TIP3     OH2      OT      -0.834000       15.9994           0
     34367 WT2      5859     TIP3     H1       HT       0.417000        1.0080           0
     34368 WT2      5859     TIP3     H2       HT       0.417000        1.0080           0
     34369 WT2      5860     TIP3     OH2      OT      -0.834000       15.9994           0
     34370 WT2      5860     TIP3     H1       HT       0.417000        1.0080           0
     34371 WT2      5860     TIP3     H2       HT       0.417000        1.0080           0
     34372 WT2      5861     TIP3     OH2      OT      -0.834000       15.9994           0
     34373 WT2      5861     TIP3     H1       HT       0.417000        1.0080           0
     34374 WT2      5861     TIP3     H2       HT       0.417000        1.0080           0
     34375 WT2      5862     TIP3     OH2      OT      -0.834000       15.9994           0
     34376 WT2      5862     TIP3     H1       HT       0.417000        1.0080           0
     34377 WT2      5862     TIP3     H2       HT       0.417000        1.0080           0
     34378 WT2      5863     TIP3     OH2      OT      -0.834000       15.9994           0
     34379 WT2      5863     TIP3     H1       HT       0.417000        1.0080           0
     34380 WT2      5863     TIP3     H2       HT       0.417000        1.0080           0
     34381 WT2      5865     TIP3     OH2      OT      -0.834000       15.9994           0
     34382 WT2      5865     TIP3     H1       HT       0.417000        1.0080           0
     34383 WT2      5865     TIP3     H2       HT       0.417000        1.0080           0
     34384 WT2      5866     TIP3     OH2      OT      -0.834000       15.9994           0
     34385 WT2      5866     TIP3     H1       HT       0.417000        1.0080           0
     34386 WT2      5866     TIP3     H2       HT       0.417000        1.0080           0
     34387 WT2      5869     TIP3     OH2      OT      -0.834000       15.9994           0
     34388 WT2      5869     TIP3     H1       HT       0.417000        1.0080           0
     34389 WT2      5869     TIP3     H2       HT       0.417000        1.0080           0
     34390 WT2      5881     TIP3     OH2      OT      -0.834000       15.9994           0
     34391 WT2      5881     TIP3     H1       HT       0.417000        1.0080           0
     34392 WT2      5881     TIP3     H2       HT       0.417000        1.0080           0
     34393 WT2      5883     TIP3     OH2      OT      -0.834000       15.9994           0
     34394 WT2      5883     TIP3     H1       HT       0.417000        1.0080           0
     34395 WT2      5883     TIP3     H2       HT       0.417000        1.0080           0
     34396 WT2      5884     TIP3     OH2      OT      -0.834000       15.9994           0
     34397 WT2      5884     TIP3     H1       HT       0.417000        1.0080           0
     34398 WT2      5884     TIP3     H2       HT       0.417000        1.0080           0
     34399 WT2      5885     TIP3     OH2      OT      -0.834000       15.9994           0
     34400 WT2      5885     TIP3     H1       HT       0.417000        1.0080           0
     34401 WT2      5885     TIP3     H2       HT       0.417000        1.0080           0
     34402 WT2      5886     TIP3     OH2      OT      -0.834000       15.9994           0
     34403 WT2      5886     TIP3     H1       HT       0.417000        1.0080           0
     34404 WT2      5886     TIP3     H2       HT       0.417000        1.0080           0
     34405 WT2      5887     TIP3     OH2      OT      -0.834000       15.9994           0
     34406 WT2      5887     TIP3     H1       HT       0.417000        1.0080           0
     34407 WT2      5887     TIP3     H2       HT       0.417000        1.0080           0
     34408 WT2      5889     TIP3     OH2      OT      -0.834000       15.9994           0
     34409 WT2      5889     TIP3     H1       HT       0.417000        1.0080           0
     34410 WT2      5889     TIP3     H2       HT       0.417000        1.0080           0
     34411 WT2      5899     TIP3     OH2      OT      -0.834000       15.9994           0
     34412 WT2      5899     TIP3     H1       HT       0.417000        1.0080           0
     34413 WT2      5899     TIP3     H2       HT       0.417000        1.0080           0
     34414 WT2      5901     TIP3     OH2      OT      -0.834000       15.9994           0
     34415 WT2      5901     TIP3     H1       HT       0.417000        1.0080           0
     34416 WT2      5901     TIP3     H2       HT       0.417000        1.0080           0
     34417 WT2      5903     TIP3     OH2      OT      -0.834000       15.9994           0
     34418 WT2      5903     TIP3     H1       HT       0.417000        1.0080           0
     34419 WT2      5903     TIP3     H2       HT       0.417000        1.0080           0
     34420 WT2      5904     TIP3     OH2      OT      -0.834000       15.9994           0
     34421 WT2      5904     TIP3     H1       HT       0.417000        1.0080           0
     34422 WT2      5904     TIP3     H2       HT       0.417000        1.0080           0
     34423 WT2      5905     TIP3     OH2      OT      -0.834000       15.9994           0
     34424 WT2      5905     TIP3     H1       HT       0.417000        1.0080           0
     34425 WT2      5905     TIP3     H2       HT       0.417000        1.0080           0
     34426 WT2      5906     TIP3     OH2      OT      -0.834000       15.9994           0
     34427 WT2      5906     TIP3     H1       HT       0.417000        1.0080           0
     34428 WT2      5906     TIP3     H2       HT       0.417000        1.0080           0
     34429 WT2      5909     TIP3     OH2      OT      -0.834000       15.9994           0
     34430 WT2      5909     TIP3     H1       HT       0.417000        1.0080           0
     34431 WT2      5909     TIP3     H2       HT       0.417000        1.0080           0
     34432 WT2      5911     TIP3     OH2      OT      -0.834000       15.9994           0
     34433 WT2      5911     TIP3     H1       HT       0.417000        1.0080           0
     34434 WT2      5911     TIP3     H2       HT       0.417000        1.0080           0
     34435 WT2      5920     TIP3     OH2      OT      -0.834000       15.9994           0
     34436 WT2      5920     TIP3     H1       HT       0.417000        1.0080           0
     34437 WT2      5920     TIP3     H2       HT       0.417000        1.0080           0
     34438 WT2      5924     TIP3     OH2      OT      -0.834000       15.9994           0
     34439 WT2      5924     TIP3     H1       HT       0.417000        1.0080           0
     34440 WT2      5924     TIP3     H2       HT       0.417000        1.0080           0
     34441 WT2      5925     TIP3     OH2      OT      -0.834000       15.9994           0
     34442 WT2      5925     TIP3     H1       HT       0.417000        1.0080           0
     34443 WT2      5925     TIP3     H2       HT       0.417000        1.0080           0
     34444 WT2      5926     TIP3     OH2      OT      -0.834000       15.9994           0
     34445 WT2      5926     TIP3     H1       HT       0.417000        1.0080           0
     34446 WT2      5926     TIP3     H2       HT       0.417000        1.0080           0
     34447 WT2      5927     TIP3     OH2      OT      -0.834000       15.9994           0
     34448 WT2      5927     TIP3     H1       HT       0.417000        1.0080           0
     34449 WT2      5927     TIP3     H2       HT       0.417000        1.0080           0
     34450 WT2      5928     TIP3     OH2      OT      -0.834000       15.9994           0
     34451 WT2      5928     TIP3     H1       HT       0.417000        1.0080           0
     34452 WT2      5928     TIP3     H2       HT       0.417000        1.0080           0
     34453 WT2      5941     TIP3     OH2      OT      -0.834000       15.9994           0
     34454 WT2      5941     TIP3     H1       HT       0.417000        1.0080           0
     34455 WT2      5941     TIP3     H2       HT       0.417000        1.0080           0
     34456 WT2      5945     TIP3     OH2      OT      -0.834000       15.9994           0
     34457 WT2      5945     TIP3     H1       HT       0.417000        1.0080           0
     34458 WT2      5945     TIP3     H2       HT       0.417000        1.0080           0
     34459 WT2      5946     TIP3     OH2      OT      -0.834000       15.9994           0
     34460 WT2      5946     TIP3     H1       HT       0.417000        1.0080           0
     34461 WT2      5946     TIP3     H2       HT       0.417000        1.0080           0
     34462 WT2      5947     TIP3     OH2      OT      -0.834000       15.9994           0
     34463 WT2      5947     TIP3     H1       HT       0.417000        1.0080           0
     34464 WT2      5947     TIP3     H2       HT       0.417000        1.0080           0
     34465 WT2      5948     TIP3     OH2      OT      -0.834000       15.9994           0
     34466 WT2      5948     TIP3     H1       HT       0.417000        1.0080           0
     34467 WT2      5948     TIP3     H2       HT       0.417000        1.0080           0
     34468 WT2      5949     TIP3     OH2      OT      -0.834000       15.9994           0
     34469 WT2      5949     TIP3     H1       HT       0.417000        1.0080           0
     34470 WT2      5949     TIP3     H2       HT       0.417000        1.0080           0
     34471 WT2      5950     TIP3     OH2      OT      -0.834000       15.9994           0
     34472 WT2      5950     TIP3     H1       HT       0.417000        1.0080           0
     34473 WT2      5950     TIP3     H2       HT       0.417000        1.0080           0
     34474 WT2      5964     TIP3     OH2      OT      -0.834000       15.9994           0
     34475 WT2      5964     TIP3     H1       HT       0.417000        1.0080           0
     34476 WT2      5964     TIP3     H2       HT       0.417000        1.0080           0
     34477 WT2      5965     TIP3     OH2      OT      -0.834000       15.9994           0
     34478 WT2      5965     TIP3     H1       HT       0.417000        1.0080           0
     34479 WT2      5965     TIP3     H2       HT       0.417000        1.0080           0
     34480 WT2      5966     TIP3     OH2      OT      -0.834000       15.9994           0
     34481 WT2      5966     TIP3     H1       HT       0.417000        1.0080           0
     34482 WT2      5966     TIP3     H2       HT       0.417000        1.0080           0
     34483 WT2      5968     TIP3     OH2      OT      -0.834000       15.9994           0
     34484 WT2      5968     TIP3     H1       HT       0.417000        1.0080           0
     34485 WT2      5968     TIP3     H2       HT       0.417000        1.0080           0
     34486 WT2      5969     TIP3     OH2      OT      -0.834000       15.9994           0
     34487 WT2      5969     TIP3     H1       HT       0.417000        1.0080           0
     34488 WT2      5969     TIP3     H2       HT       0.417000        1.0080           0
     34489 WT2      5970     TIP3     OH2      OT      -0.834000       15.9994           0
     34490 WT2      5970     TIP3     H1       HT       0.417000        1.0080           0
     34491 WT2      5970     TIP3     H2       HT       0.417000        1.0080           0
     34492 WT2      5986     TIP3     OH2      OT      -0.834000       15.9994           0
     34493 WT2      5986     TIP3     H1       HT       0.417000        1.0080           0
     34494 WT2      5986     TIP3     H2       HT       0.417000        1.0080           0
     34495 WT2      5987     TIP3     OH2      OT      -0.834000       15.9994           0
     34496 WT2      5987     TIP3     H1       HT       0.417000        1.0080           0
     34497 WT2      5987     TIP3     H2       HT       0.417000        1.0080           0
     34498 WT2      5988     TIP3     OH2      OT      -0.834000       15.9994           0
     34499 WT2      5988     TIP3     H1       HT       0.417000        1.0080           0
     34500 WT2      5988     TIP3     H2       HT       0.417000        1.0080           0
     34501 WT2      5989     TIP3     OH2      OT      -0.834000       15.9994           0
     34502 WT2      5989     TIP3     H1       HT       0.417000        1.0080           0
     34503 WT2      5989     TIP3     H2       HT       0.417000        1.0080           0
     34504 WT2      5990     TIP3     OH2      OT      -0.834000       15.9994           0
     34505 WT2      5990     TIP3     H1       HT       0.417000        1.0080           0
     34506 WT2      5990     TIP3     H2       HT       0.417000        1.0080           0
     34507 WT2      5991     TIP3     OH2      OT      -0.834000       15.9994           0
     34508 WT2      5991     TIP3     H1       HT       0.417000        1.0080           0
     34509 WT2      5991     TIP3     H2       HT       0.417000        1.0080           0
     34510 WT2      5992     TIP3     OH2      OT      -0.834000       15.9994           0
     34511 WT2      5992     TIP3     H1       HT       0.417000        1.0080           0
     34512 WT2      5992     TIP3     H2       HT       0.417000        1.0080           0
     34513 WT2      5994     TIP3     OH2      OT      -0.834000       15.9994           0
     34514 WT2      5994     TIP3     H1       HT       0.417000        1.0080           0
     34515 WT2      5994     TIP3     H2       HT       0.417000        1.0080           0
     34516 WT2      6006     TIP3     OH2      OT      -0.834000       15.9994           0
     34517 WT2      6006     TIP3     H1       HT       0.417000        1.0080           0
     34518 WT2      6006     TIP3     H2       HT       0.417000        1.0080           0
     34519 WT2      6009     TIP3     OH2      OT      -0.834000       15.9994           0
     34520 WT2      6009     TIP3     H1       HT       0.417000        1.0080           0
     34521 WT2      6009     TIP3     H2       HT       0.417000        1.0080           0
     34522 WT2      6011     TIP3     OH2      OT      -0.834000       15.9994           0
     34523 WT2      6011     TIP3     H1       HT       0.417000        1.0080           0
     34524 WT2      6011     TIP3     H2       HT       0.417000        1.0080           0
     34525 WT2      6013     TIP3     OH2      OT      -0.834000       15.9994           0
     34526 WT2      6013     TIP3     H1       HT       0.417000        1.0080           0
     34527 WT2      6013     TIP3     H2       HT       0.417000        1.0080           0
     34528 WT2      6014     TIP3     OH2      OT      -0.834000       15.9994           0
     34529 WT2      6014     TIP3     H1       HT       0.417000        1.0080           0
     34530 WT2      6014     TIP3     H2       HT       0.417000        1.0080           0
     34531 WT2      6015     TIP3     OH2      OT      -0.834000       15.9994           0
     34532 WT2      6015     TIP3     H1       HT       0.417000        1.0080           0
     34533 WT2      6015     TIP3     H2       HT       0.417000        1.0080           0
     34534 WT2      6019     TIP3     OH2      OT      -0.834000       15.9994           0
     34535 WT2      6019     TIP3     H1       HT       0.417000        1.0080           0
     34536 WT2      6019     TIP3     H2       HT       0.417000        1.0080           0
     34537 WT2      6026     TIP3     OH2      OT      -0.834000       15.9994           0
     34538 WT2      6026     TIP3     H1       HT       0.417000        1.0080           0
     34539 WT2      6026     TIP3     H2       HT       0.417000        1.0080           0
     34540 WT2      6027     TIP3     OH2      OT      -0.834000       15.9994           0
     34541 WT2      6027     TIP3     H1       HT       0.417000        1.0080           0
     34542 WT2      6027     TIP3     H2       HT       0.417000        1.0080           0
     34543 WT2      6028     TIP3     OH2      OT      -0.834000       15.9994           0
     34544 WT2      6028     TIP3     H1       HT       0.417000        1.0080           0
     34545 WT2      6028     TIP3     H2       HT       0.417000        1.0080           0
     34546 WT2      6029     TIP3     OH2      OT      -0.834000       15.9994           0
     34547 WT2      6029     TIP3     H1       HT       0.417000        1.0080           0
     34548 WT2      6029     TIP3     H2       HT       0.417000        1.0080           0
     34549 WT2      6030     TIP3     OH2      OT      -0.834000       15.9994           0
     34550 WT2      6030     TIP3     H1       HT       0.417000        1.0080           0
     34551 WT2      6030     TIP3     H2       HT       0.417000        1.0080           0
     34552 WT2      6031     TIP3     OH2      OT      -0.834000       15.9994           0
     34553 WT2      6031     TIP3     H1       HT       0.417000        1.0080           0
     34554 WT2      6031     TIP3     H2       HT       0.417000        1.0080           0
     34555 WT2      6034     TIP3     OH2      OT      -0.834000       15.9994           0
     34556 WT2      6034     TIP3     H1       HT       0.417000        1.0080           0
     34557 WT2      6034     TIP3     H2       HT       0.417000        1.0080           0
     34558 WT2      6035     TIP3     OH2      OT      -0.834000       15.9994           0
     34559 WT2      6035     TIP3     H1       HT       0.417000        1.0080           0
     34560 WT2      6035     TIP3     H2       HT       0.417000        1.0080           0
     34561 WT2      6036     TIP3     OH2      OT      -0.834000       15.9994           0
     34562 WT2      6036     TIP3     H1       HT       0.417000        1.0080           0
     34563 WT2      6036     TIP3     H2       HT       0.417000        1.0080           0
     34564 WT2      6037     TIP3     OH2      OT      -0.834000       15.9994           0
     34565 WT2      6037     TIP3     H1       HT       0.417000        1.0080           0
     34566 WT2      6037     TIP3     H2       HT       0.417000        1.0080           0
     34567 WT2      6046     TIP3     OH2      OT      -0.834000       15.9994           0
     34568 WT2      6046     TIP3     H1       HT       0.417000        1.0080           0
     34569 WT2      6046     TIP3     H2       HT       0.417000        1.0080           0
     34570 WT2      6047     TIP3     OH2      OT      -0.834000       15.9994           0
     34571 WT2      6047     TIP3     H1       HT       0.417000        1.0080           0
     34572 WT2      6047     TIP3     H2       HT       0.417000        1.0080           0
     34573 WT2      6048     TIP3     OH2      OT      -0.834000       15.9994           0
     34574 WT2      6048     TIP3     H1       HT       0.417000        1.0080           0
     34575 WT2      6048     TIP3     H2       HT       0.417000        1.0080           0
     34576 WT2      6049     TIP3     OH2      OT      -0.834000       15.9994           0
     34577 WT2      6049     TIP3     H1       HT       0.417000        1.0080           0
     34578 WT2      6049     TIP3     H2       HT       0.417000        1.0080           0
     34579 WT2      6050     TIP3     OH2      OT      -0.834000       15.9994           0
     34580 WT2      6050     TIP3     H1       HT       0.417000        1.0080           0
     34581 WT2      6050     TIP3     H2       HT       0.417000        1.0080           0
     34582 WT2      6051     TIP3     OH2      OT      -0.834000       15.9994           0
     34583 WT2      6051     TIP3     H1       HT       0.417000        1.0080           0
     34584 WT2      6051     TIP3     H2       HT       0.417000        1.0080           0
     34585 WT2      6054     TIP3     OH2      OT      -0.834000       15.9994           0
     34586 WT2      6054     TIP3     H1       HT       0.417000        1.0080           0
     34587 WT2      6054     TIP3     H2       HT       0.417000        1.0080           0
     34588 WT2      6059     TIP3     OH2      OT      -0.834000       15.9994           0
     34589 WT2      6059     TIP3     H1       HT       0.417000        1.0080           0
     34590 WT2      6059     TIP3     H2       HT       0.417000        1.0080           0
     34591 WT2      6068     TIP3     OH2      OT      -0.834000       15.9994           0
     34592 WT2      6068     TIP3     H1       HT       0.417000        1.0080           0
     34593 WT2      6068     TIP3     H2       HT       0.417000        1.0080           0
     34594 WT2      6070     TIP3     OH2      OT      -0.834000       15.9994           0
     34595 WT2      6070     TIP3     H1       HT       0.417000        1.0080           0
     34596 WT2      6070     TIP3     H2       HT       0.417000        1.0080           0
     34597 WT2      6071     TIP3     OH2      OT      -0.834000       15.9994           0
     34598 WT2      6071     TIP3     H1       HT       0.417000        1.0080           0
     34599 WT2      6071     TIP3     H2       HT       0.417000        1.0080           0
     34600 WT2      6072     TIP3     OH2      OT      -0.834000       15.9994           0
     34601 WT2      6072     TIP3     H1       HT       0.417000        1.0080           0
     34602 WT2      6072     TIP3     H2       HT       0.417000        1.0080           0
     34603 WT2      6073     TIP3     OH2      OT      -0.834000       15.9994           0
     34604 WT2      6073     TIP3     H1       HT       0.417000        1.0080           0
     34605 WT2      6073     TIP3     H2       HT       0.417000        1.0080           0
     34606 WT2      6074     TIP3     OH2      OT      -0.834000       15.9994           0
     34607 WT2      6074     TIP3     H1       HT       0.417000        1.0080           0
     34608 WT2      6074     TIP3     H2       HT       0.417000        1.0080           0
     34609 WT2      6075     TIP3     OH2      OT      -0.834000       15.9994           0
     34610 WT2      6075     TIP3     H1       HT       0.417000        1.0080           0
     34611 WT2      6075     TIP3     H2       HT       0.417000        1.0080           0
     34612 WT2      6077     TIP3     OH2      OT      -0.834000       15.9994           0
     34613 WT2      6077     TIP3     H1       HT       0.417000        1.0080           0
     34614 WT2      6077     TIP3     H2       HT       0.417000        1.0080           0
     34615 WT2      6079     TIP3     OH2      OT      -0.834000       15.9994           0
     34616 WT2      6079     TIP3     H1       HT       0.417000        1.0080           0
     34617 WT2      6079     TIP3     H2       HT       0.417000        1.0080           0
     34618 WT2      6089     TIP3     OH2      OT      -0.834000       15.9994           0
     34619 WT2      6089     TIP3     H1       HT       0.417000        1.0080           0
     34620 WT2      6089     TIP3     H2       HT       0.417000        1.0080           0
     34621 WT2      6090     TIP3     OH2      OT      -0.834000       15.9994           0
     34622 WT2      6090     TIP3     H1       HT       0.417000        1.0080           0
     34623 WT2      6090     TIP3     H2       HT       0.417000        1.0080           0
     34624 WT2      6091     TIP3     OH2      OT      -0.834000       15.9994           0
     34625 WT2      6091     TIP3     H1       HT       0.417000        1.0080           0
     34626 WT2      6091     TIP3     H2       HT       0.417000        1.0080           0
     34627 WT2      6092     TIP3     OH2      OT      -0.834000       15.9994           0
     34628 WT2      6092     TIP3     H1       HT       0.417000        1.0080           0
     34629 WT2      6092     TIP3     H2       HT       0.417000        1.0080           0
     34630 WT2      6093     TIP3     OH2      OT      -0.834000       15.9994           0
     34631 WT2      6093     TIP3     H1       HT       0.417000        1.0080           0
     34632 WT2      6093     TIP3     H2       HT       0.417000        1.0080           0
     34633 WT2      6095     TIP3     OH2      OT      -0.834000       15.9994           0
     34634 WT2      6095     TIP3     H1       HT       0.417000        1.0080           0
     34635 WT2      6095     TIP3     H2       HT       0.417000        1.0080           0
     34636 WT2      6096     TIP3     OH2      OT      -0.834000       15.9994           0
     34637 WT2      6096     TIP3     H1       HT       0.417000        1.0080           0
     34638 WT2      6096     TIP3     H2       HT       0.417000        1.0080           0
     34639 WT2      6097     TIP3     OH2      OT      -0.834000       15.9994           0
     34640 WT2      6097     TIP3     H1       HT       0.417000        1.0080           0
     34641 WT2      6097     TIP3     H2       HT       0.417000        1.0080           0
     34642 WT2      6098     TIP3     OH2      OT      -0.834000       15.9994           0
     34643 WT2      6098     TIP3     H1       HT       0.417000        1.0080           0
     34644 WT2      6098     TIP3     H2       HT       0.417000        1.0080           0
     34645 WT2      6099     TIP3     OH2      OT      -0.834000       15.9994           0
     34646 WT2      6099     TIP3     H1       HT       0.417000        1.0080           0
     34647 WT2      6099     TIP3     H2       HT       0.417000        1.0080           0
     34648 WT2      6100     TIP3     OH2      OT      -0.834000       15.9994           0
     34649 WT2      6100     TIP3     H1       HT       0.417000        1.0080           0
     34650 WT2      6100     TIP3     H2       HT       0.417000        1.0080           0
     34651 WT2      6102     TIP3     OH2      OT      -0.834000       15.9994           0
     34652 WT2      6102     TIP3     H1       HT       0.417000        1.0080           0
     34653 WT2      6102     TIP3     H2       HT       0.417000        1.0080           0
     34654 WT2      6110     TIP3     OH2      OT      -0.834000       15.9994           0
     34655 WT2      6110     TIP3     H1       HT       0.417000        1.0080           0
     34656 WT2      6110     TIP3     H2       HT       0.417000        1.0080           0
     34657 WT2      6112     TIP3     OH2      OT      -0.834000       15.9994           0
     34658 WT2      6112     TIP3     H1       HT       0.417000        1.0080           0
     34659 WT2      6112     TIP3     H2       HT       0.417000        1.0080           0
     34660 WT2      6113     TIP3     OH2      OT      -0.834000       15.9994           0
     34661 WT2      6113     TIP3     H1       HT       0.417000        1.0080           0
     34662 WT2      6113     TIP3     H2       HT       0.417000        1.0080           0
     34663 WT2      6114     TIP3     OH2      OT      -0.834000       15.9994           0
     34664 WT2      6114     TIP3     H1       HT       0.417000        1.0080           0
     34665 WT2      6114     TIP3     H2       HT       0.417000        1.0080           0
     34666 WT2      6115     TIP3     OH2      OT      -0.834000       15.9994           0
     34667 WT2      6115     TIP3     H1       HT       0.417000        1.0080           0
     34668 WT2      6115     TIP3     H2       HT       0.417000        1.0080           0
     34669 WT2      6116     TIP3     OH2      OT      -0.834000       15.9994           0
     34670 WT2      6116     TIP3     H1       HT       0.417000        1.0080           0
     34671 WT2      6116     TIP3     H2       HT       0.417000        1.0080           0
     34672 WT2      6117     TIP3     OH2      OT      -0.834000       15.9994           0
     34673 WT2      6117     TIP3     H1       HT       0.417000        1.0080           0
     34674 WT2      6117     TIP3     H2       HT       0.417000        1.0080           0
     34675 WT2      6119     TIP3     OH2      OT      -0.834000       15.9994           0
     34676 WT2      6119     TIP3     H1       HT       0.417000        1.0080           0
     34677 WT2      6119     TIP3     H2       HT       0.417000        1.0080           0
     34678 WT2      6120     TIP3     OH2      OT      -0.834000       15.9994           0
     34679 WT2      6120     TIP3     H1       HT       0.417000        1.0080           0
     34680 WT2      6120     TIP3     H2       HT       0.417000        1.0080           0
     34681 WT2      6132     TIP3     OH2      OT      -0.834000       15.9994           0
     34682 WT2      6132     TIP3     H1       HT       0.417000        1.0080           0
     34683 WT2      6132     TIP3     H2       HT       0.417000        1.0080           0
     34684 WT2      6133     TIP3     OH2      OT      -0.834000       15.9994           0
     34685 WT2      6133     TIP3     H1       HT       0.417000        1.0080           0
     34686 WT2      6133     TIP3     H2       HT       0.417000        1.0080           0
     34687 WT2      6134     TIP3     OH2      OT      -0.834000       15.9994           0
     34688 WT2      6134     TIP3     H1       HT       0.417000        1.0080           0
     34689 WT2      6134     TIP3     H2       HT       0.417000        1.0080           0
     34690 WT2      6135     TIP3     OH2      OT      -0.834000       15.9994           0
     34691 WT2      6135     TIP3     H1       HT       0.417000        1.0080           0
     34692 WT2      6135     TIP3     H2       HT       0.417000        1.0080           0
     34693 WT2      6136     TIP3     OH2      OT      -0.834000       15.9994           0
     34694 WT2      6136     TIP3     H1       HT       0.417000        1.0080           0
     34695 WT2      6136     TIP3     H2       HT       0.417000        1.0080           0
     34696 WT2      6137     TIP3     OH2      OT      -0.834000       15.9994           0
     34697 WT2      6137     TIP3     H1       HT       0.417000        1.0080           0
     34698 WT2      6137     TIP3     H2       HT       0.417000        1.0080           0
     34699 WT2      6138     TIP3     OH2      OT      -0.834000       15.9994           0
     34700 WT2      6138     TIP3     H1       HT       0.417000        1.0080           0
     34701 WT2      6138     TIP3     H2       HT       0.417000        1.0080           0
     34702 WT2      6141     TIP3     OH2      OT      -0.834000       15.9994           0
     34703 WT2      6141     TIP3     H1       HT       0.417000        1.0080           0
     34704 WT2      6141     TIP3     H2       HT       0.417000        1.0080           0
     34705 WT2      6143     TIP3     OH2      OT      -0.834000       15.9994           0
     34706 WT2      6143     TIP3     H1       HT       0.417000        1.0080           0
     34707 WT2      6143     TIP3     H2       HT       0.417000        1.0080           0
     34708 WT2      6155     TIP3     OH2      OT      -0.834000       15.9994           0
     34709 WT2      6155     TIP3     H1       HT       0.417000        1.0080           0
     34710 WT2      6155     TIP3     H2       HT       0.417000        1.0080           0
     34711 WT2      6158     TIP3     OH2      OT      -0.834000       15.9994           0
     34712 WT2      6158     TIP3     H1       HT       0.417000        1.0080           0
     34713 WT2      6158     TIP3     H2       HT       0.417000        1.0080           0
     34714 WT2      6159     TIP3     OH2      OT      -0.834000       15.9994           0
     34715 WT2      6159     TIP3     H1       HT       0.417000        1.0080           0
     34716 WT2      6159     TIP3     H2       HT       0.417000        1.0080           0
     34717 WT2      6160     TIP3     OH2      OT      -0.834000       15.9994           0
     34718 WT2      6160     TIP3     H1       HT       0.417000        1.0080           0
     34719 WT2      6160     TIP3     H2       HT       0.417000        1.0080           0
     34720 WT2      6162     TIP3     OH2      OT      -0.834000       15.9994           0
     34721 WT2      6162     TIP3     H1       HT       0.417000        1.0080           0
     34722 WT2      6162     TIP3     H2       HT       0.417000        1.0080           0
     34723 WT2      6176     TIP3     OH2      OT      -0.834000       15.9994           0
     34724 WT2      6176     TIP3     H1       HT       0.417000        1.0080           0
     34725 WT2      6176     TIP3     H2       HT       0.417000        1.0080           0
     34726 WT2      6177     TIP3     OH2      OT      -0.834000       15.9994           0
     34727 WT2      6177     TIP3     H1       HT       0.417000        1.0080           0
     34728 WT2      6177     TIP3     H2       HT       0.417000        1.0080           0
     34729 WT2      6178     TIP3     OH2      OT      -0.834000       15.9994           0
     34730 WT2      6178     TIP3     H1       HT       0.417000        1.0080           0
     34731 WT2      6178     TIP3     H2       HT       0.417000        1.0080           0
     34732 WT2      6180     TIP3     OH2      OT      -0.834000       15.9994           0
     34733 WT2      6180     TIP3     H1       HT       0.417000        1.0080           0
     34734 WT2      6180     TIP3     H2       HT       0.417000        1.0080           0
     34735 WT2      6181     TIP3     OH2      OT      -0.834000       15.9994           0
     34736 WT2      6181     TIP3     H1       HT       0.417000        1.0080           0
     34737 WT2      6181     TIP3     H2       HT       0.417000        1.0080           0
     34738 WT2      6182     TIP3     OH2      OT      -0.834000       15.9994           0
     34739 WT2      6182     TIP3     H1       HT       0.417000        1.0080           0
     34740 WT2      6182     TIP3     H2       HT       0.417000        1.0080           0
     34741 WT2      6183     TIP3     OH2      OT      -0.834000       15.9994           0
     34742 WT2      6183     TIP3     H1       HT       0.417000        1.0080           0
     34743 WT2      6183     TIP3     H2       HT       0.417000        1.0080           0
     34744 WT2      6190     TIP3     OH2      OT      -0.834000       15.9994           0
     34745 WT2      6190     TIP3     H1       HT       0.417000        1.0080           0
     34746 WT2      6190     TIP3     H2       HT       0.417000        1.0080           0
     34747 WT2      6195     TIP3     OH2      OT      -0.834000       15.9994           0
     34748 WT2      6195     TIP3     H1       HT       0.417000        1.0080           0
     34749 WT2      6195     TIP3     H2       HT       0.417000        1.0080           0
     34750 WT2      6197     TIP3     OH2      OT      -0.834000       15.9994           0
     34751 WT2      6197     TIP3     H1       HT       0.417000        1.0080           0
     34752 WT2      6197     TIP3     H2       HT       0.417000        1.0080           0
     34753 WT2      6198     TIP3     OH2      OT      -0.834000       15.9994           0
     34754 WT2      6198     TIP3     H1       HT       0.417000        1.0080           0
     34755 WT2      6198     TIP3     H2       HT       0.417000        1.0080           0
     34756 WT2      6200     TIP3     OH2      OT      -0.834000       15.9994           0
     34757 WT2      6200     TIP3     H1       HT       0.417000        1.0080           0
     34758 WT2      6200     TIP3     H2       HT       0.417000        1.0080           0
     34759 WT2      6201     TIP3     OH2      OT      -0.834000       15.9994           0
     34760 WT2      6201     TIP3     H1       HT       0.417000        1.0080           0
     34761 WT2      6201     TIP3     H2       HT       0.417000        1.0080           0
     34762 WT2      6202     TIP3     OH2      OT      -0.834000       15.9994           0
     34763 WT2      6202     TIP3     H1       HT       0.417000        1.0080           0
     34764 WT2      6202     TIP3     H2       HT       0.417000        1.0080           0
     34765 WT2      6215     TIP3     OH2      OT      -0.834000       15.9994           0
     34766 WT2      6215     TIP3     H1       HT       0.417000        1.0080           0
     34767 WT2      6215     TIP3     H2       HT       0.417000        1.0080           0
     34768 WT2      6216     TIP3     OH2      OT      -0.834000       15.9994           0
     34769 WT2      6216     TIP3     H1       HT       0.417000        1.0080           0
     34770 WT2      6216     TIP3     H2       HT       0.417000        1.0080           0
     34771 WT2      6218     TIP3     OH2      OT      -0.834000       15.9994           0
     34772 WT2      6218     TIP3     H1       HT       0.417000        1.0080           0
     34773 WT2      6218     TIP3     H2       HT       0.417000        1.0080           0
     34774 WT2      6219     TIP3     OH2      OT      -0.834000       15.9994           0
     34775 WT2      6219     TIP3     H1       HT       0.417000        1.0080           0
     34776 WT2      6219     TIP3     H2       HT       0.417000        1.0080           0
     34777 WT2      6220     TIP3     OH2      OT      -0.834000       15.9994           0
     34778 WT2      6220     TIP3     H1       HT       0.417000        1.0080           0
     34779 WT2      6220     TIP3     H2       HT       0.417000        1.0080           0
     34780 WT2      6221     TIP3     OH2      OT      -0.834000       15.9994           0
     34781 WT2      6221     TIP3     H1       HT       0.417000        1.0080           0
     34782 WT2      6221     TIP3     H2       HT       0.417000        1.0080           0
     34783 WT2      6225     TIP3     OH2      OT      -0.834000       15.9994           0
     34784 WT2      6225     TIP3     H1       HT       0.417000        1.0080           0
     34785 WT2      6225     TIP3     H2       HT       0.417000        1.0080           0
     34786 WT2      6238     TIP3     OH2      OT      -0.834000       15.9994           0
     34787 WT2      6238     TIP3     H1       HT       0.417000        1.0080           0
     34788 WT2      6238     TIP3     H2       HT       0.417000        1.0080           0
     34789 WT2      6239     TIP3     OH2      OT      -0.834000       15.9994           0
     34790 WT2      6239     TIP3     H1       HT       0.417000        1.0080           0
     34791 WT2      6239     TIP3     H2       HT       0.417000        1.0080           0
     34792 WT2      6240     TIP3     OH2      OT      -0.834000       15.9994           0
     34793 WT2      6240     TIP3     H1       HT       0.417000        1.0080           0
     34794 WT2      6240     TIP3     H2       HT       0.417000        1.0080           0
     34795 WT2      6241     TIP3     OH2      OT      -0.834000       15.9994           0
     34796 WT2      6241     TIP3     H1       HT       0.417000        1.0080           0
     34797 WT2      6241     TIP3     H2       HT       0.417000        1.0080           0
     34798 WT2      6242     TIP3     OH2      OT      -0.834000       15.9994           0
     34799 WT2      6242     TIP3     H1       HT       0.417000        1.0080           0
     34800 WT2      6242     TIP3     H2       HT       0.417000        1.0080           0
     34801 WT2      6243     TIP3     OH2      OT      -0.834000       15.9994           0
     34802 WT2      6243     TIP3     H1       HT       0.417000        1.0080           0
     34803 WT2      6243     TIP3     H2       HT       0.417000        1.0080           0
     34804 WT2      6245     TIP3     OH2      OT      -0.834000       15.9994           0
     34805 WT2      6245     TIP3     H1       HT       0.417000        1.0080           0
     34806 WT2      6245     TIP3     H2       HT       0.417000        1.0080           0
     34807 WT2      6246     TIP3     OH2      OT      -0.834000       15.9994           0
     34808 WT2      6246     TIP3     H1       HT       0.417000        1.0080           0
     34809 WT2      6246     TIP3     H2       HT       0.417000        1.0080           0
     34810 WT2      6256     TIP3     OH2      OT      -0.834000       15.9994           0
     34811 WT2      6256     TIP3     H1       HT       0.417000        1.0080           0
     34812 WT2      6256     TIP3     H2       HT       0.417000        1.0080           0
     34813 WT2      6258     TIP3     OH2      OT      -0.834000       15.9994           0
     34814 WT2      6258     TIP3     H1       HT       0.417000        1.0080           0
     34815 WT2      6258     TIP3     H2       HT       0.417000        1.0080           0
     34816 WT2      6259     TIP3     OH2      OT      -0.834000       15.9994           0
     34817 WT2      6259     TIP3     H1       HT       0.417000        1.0080           0
     34818 WT2      6259     TIP3     H2       HT       0.417000        1.0080           0
     34819 WT2      6261     TIP3     OH2      OT      -0.834000       15.9994           0
     34820 WT2      6261     TIP3     H1       HT       0.417000        1.0080           0
     34821 WT2      6261     TIP3     H2       HT       0.417000        1.0080           0
     34822 WT2      6263     TIP3     OH2      OT      -0.834000       15.9994           0
     34823 WT2      6263     TIP3     H1       HT       0.417000        1.0080           0
     34824 WT2      6263     TIP3     H2       HT       0.417000        1.0080           0
     34825 WT2      6264     TIP3     OH2      OT      -0.834000       15.9994           0
     34826 WT2      6264     TIP3     H1       HT       0.417000        1.0080           0
     34827 WT2      6264     TIP3     H2       HT       0.417000        1.0080           0
     34828 WT2      6266     TIP3     OH2      OT      -0.834000       15.9994           0
     34829 WT2      6266     TIP3     H1       HT       0.417000        1.0080           0
     34830 WT2      6266     TIP3     H2       HT       0.417000        1.0080           0
     34831 WT2      6269     TIP3     OH2      OT      -0.834000       15.9994           0
     34832 WT2      6269     TIP3     H1       HT       0.417000        1.0080           0
     34833 WT2      6269     TIP3     H2       HT       0.417000        1.0080           0
     34834 WT2      6281     TIP3     OH2      OT      -0.834000       15.9994           0
     34835 WT2      6281     TIP3     H1       HT       0.417000        1.0080           0
     34836 WT2      6281     TIP3     H2       HT       0.417000        1.0080           0
     34837 WT2      6283     TIP3     OH2      OT      -0.834000       15.9994           0
     34838 WT2      6283     TIP3     H1       HT       0.417000        1.0080           0
     34839 WT2      6283     TIP3     H2       HT       0.417000        1.0080           0
     34840 WT2      6284     TIP3     OH2      OT      -0.834000       15.9994           0
     34841 WT2      6284     TIP3     H1       HT       0.417000        1.0080           0
     34842 WT2      6284     TIP3     H2       HT       0.417000        1.0080           0
     34843 WT2      6285     TIP3     OH2      OT      -0.834000       15.9994           0
     34844 WT2      6285     TIP3     H1       HT       0.417000        1.0080           0
     34845 WT2      6285     TIP3     H2       HT       0.417000        1.0080           0
     34846 WT2      6286     TIP3     OH2      OT      -0.834000       15.9994           0
     34847 WT2      6286     TIP3     H1       HT       0.417000        1.0080           0
     34848 WT2      6286     TIP3     H2       HT       0.417000        1.0080           0
     34849 WT2      6287     TIP3     OH2      OT      -0.834000       15.9994           0
     34850 WT2      6287     TIP3     H1       HT       0.417000        1.0080           0
     34851 WT2      6287     TIP3     H2       HT       0.417000        1.0080           0
     34852 WT2      6288     TIP3     OH2      OT      -0.834000       15.9994           0
     34853 WT2      6288     TIP3     H1       HT       0.417000        1.0080           0
     34854 WT2      6288     TIP3     H2       HT       0.417000        1.0080           0
     34855 WT2      6297     TIP3     OH2      OT      -0.834000       15.9994           0
     34856 WT2      6297     TIP3     H1       HT       0.417000        1.0080           0
     34857 WT2      6297     TIP3     H2       HT       0.417000        1.0080           0
     34858 WT2      6300     TIP3     OH2      OT      -0.834000       15.9994           0
     34859 WT2      6300     TIP3     H1       HT       0.417000        1.0080           0
     34860 WT2      6300     TIP3     H2       HT       0.417000        1.0080           0
     34861 WT2      6302     TIP3     OH2      OT      -0.834000       15.9994           0
     34862 WT2      6302     TIP3     H1       HT       0.417000        1.0080           0
     34863 WT2      6302     TIP3     H2       HT       0.417000        1.0080           0
     34864 WT2      6303     TIP3     OH2      OT      -0.834000       15.9994           0
     34865 WT2      6303     TIP3     H1       HT       0.417000        1.0080           0
     34866 WT2      6303     TIP3     H2       HT       0.417000        1.0080           0
     34867 WT2      6304     TIP3     OH2      OT      -0.834000       15.9994           0
     34868 WT2      6304     TIP3     H1       HT       0.417000        1.0080           0
     34869 WT2      6304     TIP3     H2       HT       0.417000        1.0080           0
     34870 WT2      6305     TIP3     OH2      OT      -0.834000       15.9994           0
     34871 WT2      6305     TIP3     H1       HT       0.417000        1.0080           0
     34872 WT2      6305     TIP3     H2       HT       0.417000        1.0080           0
     34873 WT2      6309     TIP3     OH2      OT      -0.834000       15.9994           0
     34874 WT2      6309     TIP3     H1       HT       0.417000        1.0080           0
     34875 WT2      6309     TIP3     H2       HT       0.417000        1.0080           0
     34876 WT2      6311     TIP3     OH2      OT      -0.834000       15.9994           0
     34877 WT2      6311     TIP3     H1       HT       0.417000        1.0080           0
     34878 WT2      6311     TIP3     H2       HT       0.417000        1.0080           0
     34879 WT2      6319     TIP3     OH2      OT      -0.834000       15.9994           0
     34880 WT2      6319     TIP3     H1       HT       0.417000        1.0080           0
     34881 WT2      6319     TIP3     H2       HT       0.417000        1.0080           0
     34882 WT2      6321     TIP3     OH2      OT      -0.834000       15.9994           0
     34883 WT2      6321     TIP3     H1       HT       0.417000        1.0080           0
     34884 WT2      6321     TIP3     H2       HT       0.417000        1.0080           0
     34885 WT2      6322     TIP3     OH2      OT      -0.834000       15.9994           0
     34886 WT2      6322     TIP3     H1       HT       0.417000        1.0080           0
     34887 WT2      6322     TIP3     H2       HT       0.417000        1.0080           0
     34888 WT2      6323     TIP3     OH2      OT      -0.834000       15.9994           0
     34889 WT2      6323     TIP3     H1       HT       0.417000        1.0080           0
     34890 WT2      6323     TIP3     H2       HT       0.417000        1.0080           0
     34891 WT2      6324     TIP3     OH2      OT      -0.834000       15.9994           0
     34892 WT2      6324     TIP3     H1       HT       0.417000        1.0080           0
     34893 WT2      6324     TIP3     H2       HT       0.417000        1.0080           0
     34894 WT2      6325     TIP3     OH2      OT      -0.834000       15.9994           0
     34895 WT2      6325     TIP3     H1       HT       0.417000        1.0080           0
     34896 WT2      6325     TIP3     H2       HT       0.417000        1.0080           0
     34897 WT2      6326     TIP3     OH2      OT      -0.834000       15.9994           0
     34898 WT2      6326     TIP3     H1       HT       0.417000        1.0080           0
     34899 WT2      6326     TIP3     H2       HT       0.417000        1.0080           0
     34900 WT2      6327     TIP3     OH2      OT      -0.834000       15.9994           0
     34901 WT2      6327     TIP3     H1       HT       0.417000        1.0080           0
     34902 WT2      6327     TIP3     H2       HT       0.417000        1.0080           0
     34903 WT2      6328     TIP3     OH2      OT      -0.834000       15.9994           0
     34904 WT2      6328     TIP3     H1       HT       0.417000        1.0080           0
     34905 WT2      6328     TIP3     H2       HT       0.417000        1.0080           0
     34906 WT2      6329     TIP3     OH2      OT      -0.834000       15.9994           0
     34907 WT2      6329     TIP3     H1       HT       0.417000        1.0080           0
     34908 WT2      6329     TIP3     H2       HT       0.417000        1.0080           0
     34909 WT2      6341     TIP3     OH2      OT      -0.834000       15.9994           0
     34910 WT2      6341     TIP3     H1       HT       0.417000        1.0080           0
     34911 WT2      6341     TIP3     H2       HT       0.417000        1.0080           0
     34912 WT2      6345     TIP3     OH2      OT      -0.834000       15.9994           0
     34913 WT2      6345     TIP3     H1       HT       0.417000        1.0080           0
     34914 WT2      6345     TIP3     H2       HT       0.417000        1.0080           0
     34915 WT2      6347     TIP3     OH2      OT      -0.834000       15.9994           0
     34916 WT2      6347     TIP3     H1       HT       0.417000        1.0080           0
     34917 WT2      6347     TIP3     H2       HT       0.417000        1.0080           0
     34918 WT2      6348     TIP3     OH2      OT      -0.834000       15.9994           0
     34919 WT2      6348     TIP3     H1       HT       0.417000        1.0080           0
     34920 WT2      6348     TIP3     H2       HT       0.417000        1.0080           0
     34921 WT2      6351     TIP3     OH2      OT      -0.834000       15.9994           0
     34922 WT2      6351     TIP3     H1       HT       0.417000        1.0080           0
     34923 WT2      6351     TIP3     H2       HT       0.417000        1.0080           0
     34924 WT2      6352     TIP3     OH2      OT      -0.834000       15.9994           0
     34925 WT2      6352     TIP3     H1       HT       0.417000        1.0080           0
     34926 WT2      6352     TIP3     H2       HT       0.417000        1.0080           0
     34927 WT2      6353     TIP3     OH2      OT      -0.834000       15.9994           0
     34928 WT2      6353     TIP3     H1       HT       0.417000        1.0080           0
     34929 WT2      6353     TIP3     H2       HT       0.417000        1.0080           0
     34930 WT2      6357     TIP3     OH2      OT      -0.834000       15.9994           0
     34931 WT2      6357     TIP3     H1       HT       0.417000        1.0080           0
     34932 WT2      6357     TIP3     H2       HT       0.417000        1.0080           0
     34933 WT2      6364     TIP3     OH2      OT      -0.834000       15.9994           0
     34934 WT2      6364     TIP3     H1       HT       0.417000        1.0080           0
     34935 WT2      6364     TIP3     H2       HT       0.417000        1.0080           0
     34936 WT2      6366     TIP3     OH2      OT      -0.834000       15.9994           0
     34937 WT2      6366     TIP3     H1       HT       0.417000        1.0080           0
     34938 WT2      6366     TIP3     H2       HT       0.417000        1.0080           0
     34939 WT2      6368     TIP3     OH2      OT      -0.834000       15.9994           0
     34940 WT2      6368     TIP3     H1       HT       0.417000        1.0080           0
     34941 WT2      6368     TIP3     H2       HT       0.417000        1.0080           0
     34942 WT2      6369     TIP3     OH2      OT      -0.834000       15.9994           0
     34943 WT2      6369     TIP3     H1       HT       0.417000        1.0080           0
     34944 WT2      6369     TIP3     H2       HT       0.417000        1.0080           0
     34945 WT2      6371     TIP3     OH2      OT      -0.834000       15.9994           0
     34946 WT2      6371     TIP3     H1       HT       0.417000        1.0080           0
     34947 WT2      6371     TIP3     H2       HT       0.417000        1.0080           0
     34948 WT2      6381     TIP3     OH2      OT      -0.834000       15.9994           0
     34949 WT2      6381     TIP3     H1       HT       0.417000        1.0080           0
     34950 WT2      6381     TIP3     H2       HT       0.417000        1.0080           0
     34951 WT2      6385     TIP3     OH2      OT      -0.834000       15.9994           0
     34952 WT2      6385     TIP3     H1       HT       0.417000        1.0080           0
     34953 WT2      6385     TIP3     H2       HT       0.417000        1.0080           0
     34954 WT2      6388     TIP3     OH2      OT      -0.834000       15.9994           0
     34955 WT2      6388     TIP3     H1       HT       0.417000        1.0080           0
     34956 WT2      6388     TIP3     H2       HT       0.417000        1.0080           0
     34957 WT2      6389     TIP3     OH2      OT      -0.834000       15.9994           0
     34958 WT2      6389     TIP3     H1       HT       0.417000        1.0080           0
     34959 WT2      6389     TIP3     H2       HT       0.417000        1.0080           0
     34960 WT2      6390     TIP3     OH2      OT      -0.834000       15.9994           0
     34961 WT2      6390     TIP3     H1       HT       0.417000        1.0080           0
     34962 WT2      6390     TIP3     H2       HT       0.417000        1.0080           0
     34963 WT2      6392     TIP3     OH2      OT      -0.834000       15.9994           0
     34964 WT2      6392     TIP3     H1       HT       0.417000        1.0080           0
     34965 WT2      6392     TIP3     H2       HT       0.417000        1.0080           0
     34966 WT2      6403     TIP3     OH2      OT      -0.834000       15.9994           0
     34967 WT2      6403     TIP3     H1       HT       0.417000        1.0080           0
     34968 WT2      6403     TIP3     H2       HT       0.417000        1.0080           0
     34969 WT2      6404     TIP3     OH2      OT      -0.834000       15.9994           0
     34970 WT2      6404     TIP3     H1       HT       0.417000        1.0080           0
     34971 WT2      6404     TIP3     H2       HT       0.417000        1.0080           0
     34972 WT2      6407     TIP3     OH2      OT      -0.834000       15.9994           0
     34973 WT2      6407     TIP3     H1       HT       0.417000        1.0080           0
     34974 WT2      6407     TIP3     H2       HT       0.417000        1.0080           0
     34975 WT2      6408     TIP3     OH2      OT      -0.834000       15.9994           0
     34976 WT2      6408     TIP3     H1       HT       0.417000        1.0080           0
     34977 WT2      6408     TIP3     H2       HT       0.417000        1.0080           0
     34978 WT2      6409     TIP3     OH2      OT      -0.834000       15.9994           0
     34979 WT2      6409     TIP3     H1       HT       0.417000        1.0080           0
     34980 WT2      6409     TIP3     H2       HT       0.417000        1.0080           0
     34981 WT2      6410     TIP3     OH2      OT      -0.834000       15.9994           0
     34982 WT2      6410     TIP3     H1       HT       0.417000        1.0080           0
     34983 WT2      6410     TIP3     H2       HT       0.417000        1.0080           0
     34984 WT2      6412     TIP3     OH2      OT      -0.834000       15.9994           0
     34985 WT2      6412     TIP3     H1       HT       0.417000        1.0080           0
     34986 WT2      6412     TIP3     H2       HT       0.417000        1.0080           0
     34987 WT2      6413     TIP3     OH2      OT      -0.834000       15.9994           0
     34988 WT2      6413     TIP3     H1       HT       0.417000        1.0080           0
     34989 WT2      6413     TIP3     H2       HT       0.417000        1.0080           0
     34990 WT2      6417     TIP3     OH2      OT      -0.834000       15.9994           0
     34991 WT2      6417     TIP3     H1       HT       0.417000        1.0080           0
     34992 WT2      6417     TIP3     H2       HT       0.417000        1.0080           0
     34993 WT2      6425     TIP3     OH2      OT      -0.834000       15.9994           0
     34994 WT2      6425     TIP3     H1       HT       0.417000        1.0080           0
     34995 WT2      6425     TIP3     H2       HT       0.417000        1.0080           0
     34996 WT2      6428     TIP3     OH2      OT      -0.834000       15.9994           0
     34997 WT2      6428     TIP3     H1       HT       0.417000        1.0080           0
     34998 WT2      6428     TIP3     H2       HT       0.417000        1.0080           0
     34999 WT2      6429     TIP3     OH2      OT      -0.834000       15.9994           0
     35000 WT2      6429     TIP3     H1       HT       0.417000        1.0080           0
     35001 WT2      6429     TIP3     H2       HT       0.417000        1.0080           0
     35002 WT2      6430     TIP3     OH2      OT      -0.834000       15.9994           0
     35003 WT2      6430     TIP3     H1       HT       0.417000        1.0080           0
     35004 WT2      6430     TIP3     H2       HT       0.417000        1.0080           0
     35005 WT2      6431     TIP3     OH2      OT      -0.834000       15.9994           0
     35006 WT2      6431     TIP3     H1       HT       0.417000        1.0080           0
     35007 WT2      6431     TIP3     H2       HT       0.417000        1.0080           0
     35008 WT2      6433     TIP3     OH2      OT      -0.834000       15.9994           0
     35009 WT2      6433     TIP3     H1       HT       0.417000        1.0080           0
     35010 WT2      6433     TIP3     H2       HT       0.417000        1.0080           0
     35011 WT2      6436     TIP3     OH2      OT      -0.834000       15.9994           0
     35012 WT2      6436     TIP3     H1       HT       0.417000        1.0080           0
     35013 WT2      6436     TIP3     H2       HT       0.417000        1.0080           0
     35014 WT2      6444     TIP3     OH2      OT      -0.834000       15.9994           0
     35015 WT2      6444     TIP3     H1       HT       0.417000        1.0080           0
     35016 WT2      6444     TIP3     H2       HT       0.417000        1.0080           0
     35017 WT2      6446     TIP3     OH2      OT      -0.834000       15.9994           0
     35018 WT2      6446     TIP3     H1       HT       0.417000        1.0080           0
     35019 WT2      6446     TIP3     H2       HT       0.417000        1.0080           0
     35020 WT2      6448     TIP3     OH2      OT      -0.834000       15.9994           0
     35021 WT2      6448     TIP3     H1       HT       0.417000        1.0080           0
     35022 WT2      6448     TIP3     H2       HT       0.417000        1.0080           0
     35023 WT2      6449     TIP3     OH2      OT      -0.834000       15.9994           0
     35024 WT2      6449     TIP3     H1       HT       0.417000        1.0080           0
     35025 WT2      6449     TIP3     H2       HT       0.417000        1.0080           0
     35026 WT2      6450     TIP3     OH2      OT      -0.834000       15.9994           0
     35027 WT2      6450     TIP3     H1       HT       0.417000        1.0080           0
     35028 WT2      6450     TIP3     H2       HT       0.417000        1.0080           0
     35029 WT2      6451     TIP3     OH2      OT      -0.834000       15.9994           0
     35030 WT2      6451     TIP3     H1       HT       0.417000        1.0080           0
     35031 WT2      6451     TIP3     H2       HT       0.417000        1.0080           0
     35032 WT2      6452     TIP3     OH2      OT      -0.834000       15.9994           0
     35033 WT2      6452     TIP3     H1       HT       0.417000        1.0080           0
     35034 WT2      6452     TIP3     H2       HT       0.417000        1.0080           0
     35035 WT2      6454     TIP3     OH2      OT      -0.834000       15.9994           0
     35036 WT2      6454     TIP3     H1       HT       0.417000        1.0080           0
     35037 WT2      6454     TIP3     H2       HT       0.417000        1.0080           0
     35038 WT2      6455     TIP3     OH2      OT      -0.834000       15.9994           0
     35039 WT2      6455     TIP3     H1       HT       0.417000        1.0080           0
     35040 WT2      6455     TIP3     H2       HT       0.417000        1.0080           0
     35041 WT2      6457     TIP3     OH2      OT      -0.834000       15.9994           0
     35042 WT2      6457     TIP3     H1       HT       0.417000        1.0080           0
     35043 WT2      6457     TIP3     H2       HT       0.417000        1.0080           0
     35044 WT2      6469     TIP3     OH2      OT      -0.834000       15.9994           0
     35045 WT2      6469     TIP3     H1       HT       0.417000        1.0080           0
     35046 WT2      6469     TIP3     H2       HT       0.417000        1.0080           0
     35047 WT2      6470     TIP3     OH2      OT      -0.834000       15.9994           0
     35048 WT2      6470     TIP3     H1       HT       0.417000        1.0080           0
     35049 WT2      6470     TIP3     H2       HT       0.417000        1.0080           0
     35050 WT2      6471     TIP3     OH2      OT      -0.834000       15.9994           0
     35051 WT2      6471     TIP3     H1       HT       0.417000        1.0080           0
     35052 WT2      6471     TIP3     H2       HT       0.417000        1.0080           0
     35053 WT2      6472     TIP3     OH2      OT      -0.834000       15.9994           0
     35054 WT2      6472     TIP3     H1       HT       0.417000        1.0080           0
     35055 WT2      6472     TIP3     H2       HT       0.417000        1.0080           0
     35056 WT2      6473     TIP3     OH2      OT      -0.834000       15.9994           0
     35057 WT2      6473     TIP3     H1       HT       0.417000        1.0080           0
     35058 WT2      6473     TIP3     H2       HT       0.417000        1.0080           0
     35059 WT2      6474     TIP3     OH2      OT      -0.834000       15.9994           0
     35060 WT2      6474     TIP3     H1       HT       0.417000        1.0080           0
     35061 WT2      6474     TIP3     H2       HT       0.417000        1.0080           0
     35062 WT2      6475     TIP3     OH2      OT      -0.834000       15.9994           0
     35063 WT2      6475     TIP3     H1       HT       0.417000        1.0080           0
     35064 WT2      6475     TIP3     H2       HT       0.417000        1.0080           0
     35065 WT2      6476     TIP3     OH2      OT      -0.834000       15.9994           0
     35066 WT2      6476     TIP3     H1       HT       0.417000        1.0080           0
     35067 WT2      6476     TIP3     H2       HT       0.417000        1.0080           0
     35068 WT2      6490     TIP3     OH2      OT      -0.834000       15.9994           0
     35069 WT2      6490     TIP3     H1       HT       0.417000        1.0080           0
     35070 WT2      6490     TIP3     H2       HT       0.417000        1.0080           0
     35071 WT2      6491     TIP3     OH2      OT      -0.834000       15.9994           0
     35072 WT2      6491     TIP3     H1       HT       0.417000        1.0080           0
     35073 WT2      6491     TIP3     H2       HT       0.417000        1.0080           0
     35074 WT2      6492     TIP3     OH2      OT      -0.834000       15.9994           0
     35075 WT2      6492     TIP3     H1       HT       0.417000        1.0080           0
     35076 WT2      6492     TIP3     H2       HT       0.417000        1.0080           0
     35077 WT2      6493     TIP3     OH2      OT      -0.834000       15.9994           0
     35078 WT2      6493     TIP3     H1       HT       0.417000        1.0080           0
     35079 WT2      6493     TIP3     H2       HT       0.417000        1.0080           0
     35080 WT2      6495     TIP3     OH2      OT      -0.834000       15.9994           0
     35081 WT2      6495     TIP3     H1       HT       0.417000        1.0080           0
     35082 WT2      6495     TIP3     H2       HT       0.417000        1.0080           0
     35083 WT2      6497     TIP3     OH2      OT      -0.834000       15.9994           0
     35084 WT2      6497     TIP3     H1       HT       0.417000        1.0080           0
     35085 WT2      6497     TIP3     H2       HT       0.417000        1.0080           0
     35086 WT2      6499     TIP3     OH2      OT      -0.834000       15.9994           0
     35087 WT2      6499     TIP3     H1       HT       0.417000        1.0080           0
     35088 WT2      6499     TIP3     H2       HT       0.417000        1.0080           0
     35089 WT2      6509     TIP3     OH2      OT      -0.834000       15.9994           0
     35090 WT2      6509     TIP3     H1       HT       0.417000        1.0080           0
     35091 WT2      6509     TIP3     H2       HT       0.417000        1.0080           0
     35092 WT2      6511     TIP3     OH2      OT      -0.834000       15.9994           0
     35093 WT2      6511     TIP3     H1       HT       0.417000        1.0080           0
     35094 WT2      6511     TIP3     H2       HT       0.417000        1.0080           0
     35095 WT2      6512     TIP3     OH2      OT      -0.834000       15.9994           0
     35096 WT2      6512     TIP3     H1       HT       0.417000        1.0080           0
     35097 WT2      6512     TIP3     H2       HT       0.417000        1.0080           0
     35098 WT2      6513     TIP3     OH2      OT      -0.834000       15.9994           0
     35099 WT2      6513     TIP3     H1       HT       0.417000        1.0080           0
     35100 WT2      6513     TIP3     H2       HT       0.417000        1.0080           0
     35101 WT2      6514     TIP3     OH2      OT      -0.834000       15.9994           0
     35102 WT2      6514     TIP3     H1       HT       0.417000        1.0080           0
     35103 WT2      6514     TIP3     H2       HT       0.417000        1.0080           0
     35104 WT2      6515     TIP3     OH2      OT      -0.834000       15.9994           0
     35105 WT2      6515     TIP3     H1       HT       0.417000        1.0080           0
     35106 WT2      6515     TIP3     H2       HT       0.417000        1.0080           0
     35107 WT2      6516     TIP3     OH2      OT      -0.834000       15.9994           0
     35108 WT2      6516     TIP3     H1       HT       0.417000        1.0080           0
     35109 WT2      6516     TIP3     H2       HT       0.417000        1.0080           0
     35110 WT2      6519     TIP3     OH2      OT      -0.834000       15.9994           0
     35111 WT2      6519     TIP3     H1       HT       0.417000        1.0080           0
     35112 WT2      6519     TIP3     H2       HT       0.417000        1.0080           0
     35113 WT2      6528     TIP3     OH2      OT      -0.834000       15.9994           0
     35114 WT2      6528     TIP3     H1       HT       0.417000        1.0080           0
     35115 WT2      6528     TIP3     H2       HT       0.417000        1.0080           0
     35116 WT2      6532     TIP3     OH2      OT      -0.834000       15.9994           0
     35117 WT2      6532     TIP3     H1       HT       0.417000        1.0080           0
     35118 WT2      6532     TIP3     H2       HT       0.417000        1.0080           0
     35119 WT2      6533     TIP3     OH2      OT      -0.834000       15.9994           0
     35120 WT2      6533     TIP3     H1       HT       0.417000        1.0080           0
     35121 WT2      6533     TIP3     H2       HT       0.417000        1.0080           0
     35122 WT2      6534     TIP3     OH2      OT      -0.834000       15.9994           0
     35123 WT2      6534     TIP3     H1       HT       0.417000        1.0080           0
     35124 WT2      6534     TIP3     H2       HT       0.417000        1.0080           0
     35125 WT2      6535     TIP3     OH2      OT      -0.834000       15.9994           0
     35126 WT2      6535     TIP3     H1       HT       0.417000        1.0080           0
     35127 WT2      6535     TIP3     H2       HT       0.417000        1.0080           0
     35128 WT2      6536     TIP3     OH2      OT      -0.834000       15.9994           0
     35129 WT2      6536     TIP3     H1       HT       0.417000        1.0080           0
     35130 WT2      6536     TIP3     H2       HT       0.417000        1.0080           0
     35131 WT2      6537     TIP3     OH2      OT      -0.834000       15.9994           0
     35132 WT2      6537     TIP3     H1       HT       0.417000        1.0080           0
     35133 WT2      6537     TIP3     H2       HT       0.417000        1.0080           0
     35134 WT2      6538     TIP3     OH2      OT      -0.834000       15.9994           0
     35135 WT2      6538     TIP3     H1       HT       0.417000        1.0080           0
     35136 WT2      6538     TIP3     H2       HT       0.417000        1.0080           0
     35137 WT2      6543     TIP3     OH2      OT      -0.834000       15.9994           0
     35138 WT2      6543     TIP3     H1       HT       0.417000        1.0080           0
     35139 WT2      6543     TIP3     H2       HT       0.417000        1.0080           0
     35140 WT2      6549     TIP3     OH2      OT      -0.834000       15.9994           0
     35141 WT2      6549     TIP3     H1       HT       0.417000        1.0080           0
     35142 WT2      6549     TIP3     H2       HT       0.417000        1.0080           0
     35143 WT2      6551     TIP3     OH2      OT      -0.834000       15.9994           0
     35144 WT2      6551     TIP3     H1       HT       0.417000        1.0080           0
     35145 WT2      6551     TIP3     H2       HT       0.417000        1.0080           0
     35146 WT2      6552     TIP3     OH2      OT      -0.834000       15.9994           0
     35147 WT2      6552     TIP3     H1       HT       0.417000        1.0080           0
     35148 WT2      6552     TIP3     H2       HT       0.417000        1.0080           0
     35149 WT2      6553     TIP3     OH2      OT      -0.834000       15.9994           0
     35150 WT2      6553     TIP3     H1       HT       0.417000        1.0080           0
     35151 WT2      6553     TIP3     H2       HT       0.417000        1.0080           0
     35152 WT2      6555     TIP3     OH2      OT      -0.834000       15.9994           0
     35153 WT2      6555     TIP3     H1       HT       0.417000        1.0080           0
     35154 WT2      6555     TIP3     H2       HT       0.417000        1.0080           0
     35155 WT2      6556     TIP3     OH2      OT      -0.834000       15.9994           0
     35156 WT2      6556     TIP3     H1       HT       0.417000        1.0080           0
     35157 WT2      6556     TIP3     H2       HT       0.417000        1.0080           0
     35158 WT2      6559     TIP3     OH2      OT      -0.834000       15.9994           0
     35159 WT2      6559     TIP3     H1       HT       0.417000        1.0080           0
     35160 WT2      6559     TIP3     H2       HT       0.417000        1.0080           0
     35161 WT2      6560     TIP3     OH2      OT      -0.834000       15.9994           0
     35162 WT2      6560     TIP3     H1       HT       0.417000        1.0080           0
     35163 WT2      6560     TIP3     H2       HT       0.417000        1.0080           0
     35164 WT2      6564     TIP3     OH2      OT      -0.834000       15.9994           0
     35165 WT2      6564     TIP3     H1       HT       0.417000        1.0080           0
     35166 WT2      6564     TIP3     H2       HT       0.417000        1.0080           0
     35167 WT2      6575     TIP3     OH2      OT      -0.834000       15.9994           0
     35168 WT2      6575     TIP3     H1       HT       0.417000        1.0080           0
     35169 WT2      6575     TIP3     H2       HT       0.417000        1.0080           0
     35170 WT2      6576     TIP3     OH2      OT      -0.834000       15.9994           0
     35171 WT2      6576     TIP3     H1       HT       0.417000        1.0080           0
     35172 WT2      6576     TIP3     H2       HT       0.417000        1.0080           0
     35173 WT2      6577     TIP3     OH2      OT      -0.834000       15.9994           0
     35174 WT2      6577     TIP3     H1       HT       0.417000        1.0080           0
     35175 WT2      6577     TIP3     H2       HT       0.417000        1.0080           0
     35176 WT2      6578     TIP3     OH2      OT      -0.834000       15.9994           0
     35177 WT2      6578     TIP3     H1       HT       0.417000        1.0080           0
     35178 WT2      6578     TIP3     H2       HT       0.417000        1.0080           0
     35179 WT2      6579     TIP3     OH2      OT      -0.834000       15.9994           0
     35180 WT2      6579     TIP3     H1       HT       0.417000        1.0080           0
     35181 WT2      6579     TIP3     H2       HT       0.417000        1.0080           0
     35182 WT2      6580     TIP3     OH2      OT      -0.834000       15.9994           0
     35183 WT2      6580     TIP3     H1       HT       0.417000        1.0080           0
     35184 WT2      6580     TIP3     H2       HT       0.417000        1.0080           0
     35185 WT2      6595     TIP3     OH2      OT      -0.834000       15.9994           0
     35186 WT2      6595     TIP3     H1       HT       0.417000        1.0080           0
     35187 WT2      6595     TIP3     H2       HT       0.417000        1.0080           0
     35188 WT2      6597     TIP3     OH2      OT      -0.834000       15.9994           0
     35189 WT2      6597     TIP3     H1       HT       0.417000        1.0080           0
     35190 WT2      6597     TIP3     H2       HT       0.417000        1.0080           0
     35191 WT2      6598     TIP3     OH2      OT      -0.834000       15.9994           0
     35192 WT2      6598     TIP3     H1       HT       0.417000        1.0080           0
     35193 WT2      6598     TIP3     H2       HT       0.417000        1.0080           0
     35194 WT2      6599     TIP3     OH2      OT      -0.834000       15.9994           0
     35195 WT2      6599     TIP3     H1       HT       0.417000        1.0080           0
     35196 WT2      6599     TIP3     H2       HT       0.417000        1.0080           0
     35197 WT2      6600     TIP3     OH2      OT      -0.834000       15.9994           0
     35198 WT2      6600     TIP3     H1       HT       0.417000        1.0080           0
     35199 WT2      6600     TIP3     H2       HT       0.417000        1.0080           0
     35200 WT2      6602     TIP3     OH2      OT      -0.834000       15.9994           0
     35201 WT2      6602     TIP3     H1       HT       0.417000        1.0080           0
     35202 WT2      6602     TIP3     H2       HT       0.417000        1.0080           0
     35203 WT2      6603     TIP3     OH2      OT      -0.834000       15.9994           0
     35204 WT2      6603     TIP3     H1       HT       0.417000        1.0080           0
     35205 WT2      6603     TIP3     H2       HT       0.417000        1.0080           0
     35206 WT2      6605     TIP3     OH2      OT      -0.834000       15.9994           0
     35207 WT2      6605     TIP3     H1       HT       0.417000        1.0080           0
     35208 WT2      6605     TIP3     H2       HT       0.417000        1.0080           0
     35209 WT2      6615     TIP3     OH2      OT      -0.834000       15.9994           0
     35210 WT2      6615     TIP3     H1       HT       0.417000        1.0080           0
     35211 WT2      6615     TIP3     H2       HT       0.417000        1.0080           0
     35212 WT2      6616     TIP3     OH2      OT      -0.834000       15.9994           0
     35213 WT2      6616     TIP3     H1       HT       0.417000        1.0080           0
     35214 WT2      6616     TIP3     H2       HT       0.417000        1.0080           0
     35215 WT2      6618     TIP3     OH2      OT      -0.834000       15.9994           0
     35216 WT2      6618     TIP3     H1       HT       0.417000        1.0080           0
     35217 WT2      6618     TIP3     H2       HT       0.417000        1.0080           0
     35218 WT2      6619     TIP3     OH2      OT      -0.834000       15.9994           0
     35219 WT2      6619     TIP3     H1       HT       0.417000        1.0080           0
     35220 WT2      6619     TIP3     H2       HT       0.417000        1.0080           0
     35221 WT2      6620     TIP3     OH2      OT      -0.834000       15.9994           0
     35222 WT2      6620     TIP3     H1       HT       0.417000        1.0080           0
     35223 WT2      6620     TIP3     H2       HT       0.417000        1.0080           0
     35224 WT2      6621     TIP3     OH2      OT      -0.834000       15.9994           0
     35225 WT2      6621     TIP3     H1       HT       0.417000        1.0080           0
     35226 WT2      6621     TIP3     H2       HT       0.417000        1.0080           0
     35227 WT2      6623     TIP3     OH2      OT      -0.834000       15.9994           0
     35228 WT2      6623     TIP3     H1       HT       0.417000        1.0080           0
     35229 WT2      6623     TIP3     H2       HT       0.417000        1.0080           0
     35230 WT2      6633     TIP3     OH2      OT      -0.834000       15.9994           0
     35231 WT2      6633     TIP3     H1       HT       0.417000        1.0080           0
     35232 WT2      6633     TIP3     H2       HT       0.417000        1.0080           0
     35233 WT2      6636     TIP3     OH2      OT      -0.834000       15.9994           0
     35234 WT2      6636     TIP3     H1       HT       0.417000        1.0080           0
     35235 WT2      6636     TIP3     H2       HT       0.417000        1.0080           0
     35236 WT2      6637     TIP3     OH2      OT      -0.834000       15.9994           0
     35237 WT2      6637     TIP3     H1       HT       0.417000        1.0080           0
     35238 WT2      6637     TIP3     H2       HT       0.417000        1.0080           0
     35239 WT2      6638     TIP3     OH2      OT      -0.834000       15.9994           0
     35240 WT2      6638     TIP3     H1       HT       0.417000        1.0080           0
     35241 WT2      6638     TIP3     H2       HT       0.417000        1.0080           0
     35242 WT2      6639     TIP3     OH2      OT      -0.834000       15.9994           0
     35243 WT2      6639     TIP3     H1       HT       0.417000        1.0080           0
     35244 WT2      6639     TIP3     H2       HT       0.417000        1.0080           0
     35245 WT2      6640     TIP3     OH2      OT      -0.834000       15.9994           0
     35246 WT2      6640     TIP3     H1       HT       0.417000        1.0080           0
     35247 WT2      6640     TIP3     H2       HT       0.417000        1.0080           0
     35248 WT2      6641     TIP3     OH2      OT      -0.834000       15.9994           0
     35249 WT2      6641     TIP3     H1       HT       0.417000        1.0080           0
     35250 WT2      6641     TIP3     H2       HT       0.417000        1.0080           0
     35251 WT2      6642     TIP3     OH2      OT      -0.834000       15.9994           0
     35252 WT2      6642     TIP3     H1       HT       0.417000        1.0080           0
     35253 WT2      6642     TIP3     H2       HT       0.417000        1.0080           0
     35254 WT2      6645     TIP3     OH2      OT      -0.834000       15.9994           0
     35255 WT2      6645     TIP3     H1       HT       0.417000        1.0080           0
     35256 WT2      6645     TIP3     H2       HT       0.417000        1.0080           0
     35257 WT2      6656     TIP3     OH2      OT      -0.834000       15.9994           0
     35258 WT2      6656     TIP3     H1       HT       0.417000        1.0080           0
     35259 WT2      6656     TIP3     H2       HT       0.417000        1.0080           0
     35260 WT2      6659     TIP3     OH2      OT      -0.834000       15.9994           0
     35261 WT2      6659     TIP3     H1       HT       0.417000        1.0080           0
     35262 WT2      6659     TIP3     H2       HT       0.417000        1.0080           0
     35263 WT2      6660     TIP3     OH2      OT      -0.834000       15.9994           0
     35264 WT2      6660     TIP3     H1       HT       0.417000        1.0080           0
     35265 WT2      6660     TIP3     H2       HT       0.417000        1.0080           0
     35266 WT2      6661     TIP3     OH2      OT      -0.834000       15.9994           0
     35267 WT2      6661     TIP3     H1       HT       0.417000        1.0080           0
     35268 WT2      6661     TIP3     H2       HT       0.417000        1.0080           0
     35269 WT2      6662     TIP3     OH2      OT      -0.834000       15.9994           0
     35270 WT2      6662     TIP3     H1       HT       0.417000        1.0080           0
     35271 WT2      6662     TIP3     H2       HT       0.417000        1.0080           0
     35272 WT2      6664     TIP3     OH2      OT      -0.834000       15.9994           0
     35273 WT2      6664     TIP3     H1       HT       0.417000        1.0080           0
     35274 WT2      6664     TIP3     H2       HT       0.417000        1.0080           0
     35275 WT2      6671     TIP3     OH2      OT      -0.834000       15.9994           0
     35276 WT2      6671     TIP3     H1       HT       0.417000        1.0080           0
     35277 WT2      6671     TIP3     H2       HT       0.417000        1.0080           0
     35278 WT2      6679     TIP3     OH2      OT      -0.834000       15.9994           0
     35279 WT2      6679     TIP3     H1       HT       0.417000        1.0080           0
     35280 WT2      6679     TIP3     H2       HT       0.417000        1.0080           0
     35281 WT2      6681     TIP3     OH2      OT      -0.834000       15.9994           0
     35282 WT2      6681     TIP3     H1       HT       0.417000        1.0080           0
     35283 WT2      6681     TIP3     H2       HT       0.417000        1.0080           0
     35284 WT2      6684     TIP3     OH2      OT      -0.834000       15.9994           0
     35285 WT2      6684     TIP3     H1       HT       0.417000        1.0080           0
     35286 WT2      6684     TIP3     H2       HT       0.417000        1.0080           0
     35287 WT2      6685     TIP3     OH2      OT      -0.834000       15.9994           0
     35288 WT2      6685     TIP3     H1       HT       0.417000        1.0080           0
     35289 WT2      6685     TIP3     H2       HT       0.417000        1.0080           0
     35290 WT2      6686     TIP3     OH2      OT      -0.834000       15.9994           0
     35291 WT2      6686     TIP3     H1       HT       0.417000        1.0080           0
     35292 WT2      6686     TIP3     H2       HT       0.417000        1.0080           0
     35293 WT2      6698     TIP3     OH2      OT      -0.834000       15.9994           0
     35294 WT2      6698     TIP3     H1       HT       0.417000        1.0080           0
     35295 WT2      6698     TIP3     H2       HT       0.417000        1.0080           0
     35296 WT2      6700     TIP3     OH2      OT      -0.834000       15.9994           0
     35297 WT2      6700     TIP3     H1       HT       0.417000        1.0080           0
     35298 WT2      6700     TIP3     H2       HT       0.417000        1.0080           0
     35299 WT2      6701     TIP3     OH2      OT      -0.834000       15.9994           0
     35300 WT2      6701     TIP3     H1       HT       0.417000        1.0080           0
     35301 WT2      6701     TIP3     H2       HT       0.417000        1.0080           0
     35302 WT2      6703     TIP3     OH2      OT      -0.834000       15.9994           0
     35303 WT2      6703     TIP3     H1       HT       0.417000        1.0080           0
     35304 WT2      6703     TIP3     H2       HT       0.417000        1.0080           0
     35305 WT2      6704     TIP3     OH2      OT      -0.834000       15.9994           0
     35306 WT2      6704     TIP3     H1       HT       0.417000        1.0080           0
     35307 WT2      6704     TIP3     H2       HT       0.417000        1.0080           0
     35308 WT2      6705     TIP3     OH2      OT      -0.834000       15.9994           0
     35309 WT2      6705     TIP3     H1       HT       0.417000        1.0080           0
     35310 WT2      6705     TIP3     H2       HT       0.417000        1.0080           0
     35311 WT2      6706     TIP3     OH2      OT      -0.834000       15.9994           0
     35312 WT2      6706     TIP3     H1       HT       0.417000        1.0080           0
     35313 WT2      6706     TIP3     H2       HT       0.417000        1.0080           0
     35314 WT2      6708     TIP3     OH2      OT      -0.834000       15.9994           0
     35315 WT2      6708     TIP3     H1       HT       0.417000        1.0080           0
     35316 WT2      6708     TIP3     H2       HT       0.417000        1.0080           0
     35317 WT2      6721     TIP3     OH2      OT      -0.834000       15.9994           0
     35318 WT2      6721     TIP3     H1       HT       0.417000        1.0080           0
     35319 WT2      6721     TIP3     H2       HT       0.417000        1.0080           0
     35320 WT2      6722     TIP3     OH2      OT      -0.834000       15.9994           0
     35321 WT2      6722     TIP3     H1       HT       0.417000        1.0080           0
     35322 WT2      6722     TIP3     H2       HT       0.417000        1.0080           0
     35323 WT2      6725     TIP3     OH2      OT      -0.834000       15.9994           0
     35324 WT2      6725     TIP3     H1       HT       0.417000        1.0080           0
     35325 WT2      6725     TIP3     H2       HT       0.417000        1.0080           0
     35326 WT2      6726     TIP3     OH2      OT      -0.834000       15.9994           0
     35327 WT2      6726     TIP3     H1       HT       0.417000        1.0080           0
     35328 WT2      6726     TIP3     H2       HT       0.417000        1.0080           0
     35329 WT2      6727     TIP3     OH2      OT      -0.834000       15.9994           0
     35330 WT2      6727     TIP3     H1       HT       0.417000        1.0080           0
     35331 WT2      6727     TIP3     H2       HT       0.417000        1.0080           0
     35332 WT2      6729     TIP3     OH2      OT      -0.834000       15.9994           0
     35333 WT2      6729     TIP3     H1       HT       0.417000        1.0080           0
     35334 WT2      6729     TIP3     H2       HT       0.417000        1.0080           0
     35335 WT2      6730     TIP3     OH2      OT      -0.834000       15.9994           0
     35336 WT2      6730     TIP3     H1       HT       0.417000        1.0080           0
     35337 WT2      6730     TIP3     H2       HT       0.417000        1.0080           0
     35338 WT2      6731     TIP3     OH2      OT      -0.834000       15.9994           0
     35339 WT2      6731     TIP3     H1       HT       0.417000        1.0080           0
     35340 WT2      6731     TIP3     H2       HT       0.417000        1.0080           0
     35341 WT2      6740     TIP3     OH2      OT      -0.834000       15.9994           0
     35342 WT2      6740     TIP3     H1       HT       0.417000        1.0080           0
     35343 WT2      6740     TIP3     H2       HT       0.417000        1.0080           0
     35344 WT2      6742     TIP3     OH2      OT      -0.834000       15.9994           0
     35345 WT2      6742     TIP3     H1       HT       0.417000        1.0080           0
     35346 WT2      6742     TIP3     H2       HT       0.417000        1.0080           0
     35347 WT2      6743     TIP3     OH2      OT      -0.834000       15.9994           0
     35348 WT2      6743     TIP3     H1       HT       0.417000        1.0080           0
     35349 WT2      6743     TIP3     H2       HT       0.417000        1.0080           0
     35350 WT2      6745     TIP3     OH2      OT      -0.834000       15.9994           0
     35351 WT2      6745     TIP3     H1       HT       0.417000        1.0080           0
     35352 WT2      6745     TIP3     H2       HT       0.417000        1.0080           0
     35353 WT2      6748     TIP3     OH2      OT      -0.834000       15.9994           0
     35354 WT2      6748     TIP3     H1       HT       0.417000        1.0080           0
     35355 WT2      6748     TIP3     H2       HT       0.417000        1.0080           0
     35356 WT2      6750     TIP3     OH2      OT      -0.834000       15.9994           0
     35357 WT2      6750     TIP3     H1       HT       0.417000        1.0080           0
     35358 WT2      6750     TIP3     H2       HT       0.417000        1.0080           0
     35359 WT2      6762     TIP3     OH2      OT      -0.834000       15.9994           0
     35360 WT2      6762     TIP3     H1       HT       0.417000        1.0080           0
     35361 WT2      6762     TIP3     H2       HT       0.417000        1.0080           0
     35362 WT2      6763     TIP3     OH2      OT      -0.834000       15.9994           0
     35363 WT2      6763     TIP3     H1       HT       0.417000        1.0080           0
     35364 WT2      6763     TIP3     H2       HT       0.417000        1.0080           0
     35365 WT2      6765     TIP3     OH2      OT      -0.834000       15.9994           0
     35366 WT2      6765     TIP3     H1       HT       0.417000        1.0080           0
     35367 WT2      6765     TIP3     H2       HT       0.417000        1.0080           0
     35368 WT2      6767     TIP3     OH2      OT      -0.834000       15.9994           0
     35369 WT2      6767     TIP3     H1       HT       0.417000        1.0080           0
     35370 WT2      6767     TIP3     H2       HT       0.417000        1.0080           0
     35371 WT2      6768     TIP3     OH2      OT      -0.834000       15.9994           0
     35372 WT2      6768     TIP3     H1       HT       0.417000        1.0080           0
     35373 WT2      6768     TIP3     H2       HT       0.417000        1.0080           0
     35374 WT2      6769     TIP3     OH2      OT      -0.834000       15.9994           0
     35375 WT2      6769     TIP3     H1       HT       0.417000        1.0080           0
     35376 WT2      6769     TIP3     H2       HT       0.417000        1.0080           0
     35377 WT2      6770     TIP3     OH2      OT      -0.834000       15.9994           0
     35378 WT2      6770     TIP3     H1       HT       0.417000        1.0080           0
     35379 WT2      6770     TIP3     H2       HT       0.417000        1.0080           0
     35380 WT2      6771     TIP3     OH2      OT      -0.834000       15.9994           0
     35381 WT2      6771     TIP3     H1       HT       0.417000        1.0080           0
     35382 WT2      6771     TIP3     H2       HT       0.417000        1.0080           0
     35383 WT2      6786     TIP3     OH2      OT      -0.834000       15.9994           0
     35384 WT2      6786     TIP3     H1       HT       0.417000        1.0080           0
     35385 WT2      6786     TIP3     H2       HT       0.417000        1.0080           0
     35386 WT2      6788     TIP3     OH2      OT      -0.834000       15.9994           0
     35387 WT2      6788     TIP3     H1       HT       0.417000        1.0080           0
     35388 WT2      6788     TIP3     H2       HT       0.417000        1.0080           0
     35389 WT2      6790     TIP3     OH2      OT      -0.834000       15.9994           0
     35390 WT2      6790     TIP3     H1       HT       0.417000        1.0080           0
     35391 WT2      6790     TIP3     H2       HT       0.417000        1.0080           0
     35392 WT2      6791     TIP3     OH2      OT      -0.834000       15.9994           0
     35393 WT2      6791     TIP3     H1       HT       0.417000        1.0080           0
     35394 WT2      6791     TIP3     H2       HT       0.417000        1.0080           0
     35395 WT2      6792     TIP3     OH2      OT      -0.834000       15.9994           0
     35396 WT2      6792     TIP3     H1       HT       0.417000        1.0080           0
     35397 WT2      6792     TIP3     H2       HT       0.417000        1.0080           0
     35398 WT2      6803     TIP3     OH2      OT      -0.834000       15.9994           0
     35399 WT2      6803     TIP3     H1       HT       0.417000        1.0080           0
     35400 WT2      6803     TIP3     H2       HT       0.417000        1.0080           0
     35401 WT2      6807     TIP3     OH2      OT      -0.834000       15.9994           0
     35402 WT2      6807     TIP3     H1       HT       0.417000        1.0080           0
     35403 WT2      6807     TIP3     H2       HT       0.417000        1.0080           0
     35404 WT2      6810     TIP3     OH2      OT      -0.834000       15.9994           0
     35405 WT2      6810     TIP3     H1       HT       0.417000        1.0080           0
     35406 WT2      6810     TIP3     H2       HT       0.417000        1.0080           0
     35407 WT2      6811     TIP3     OH2      OT      -0.834000       15.9994           0
     35408 WT2      6811     TIP3     H1       HT       0.417000        1.0080           0
     35409 WT2      6811     TIP3     H2       HT       0.417000        1.0080           0
     35410 WT2      6813     TIP3     OH2      OT      -0.834000       15.9994           0
     35411 WT2      6813     TIP3     H1       HT       0.417000        1.0080           0
     35412 WT2      6813     TIP3     H2       HT       0.417000        1.0080           0
     35413 WT2      6815     TIP3     OH2      OT      -0.834000       15.9994           0
     35414 WT2      6815     TIP3     H1       HT       0.417000        1.0080           0
     35415 WT2      6815     TIP3     H2       HT       0.417000        1.0080           0
     35416 WT2      6825     TIP3     OH2      OT      -0.834000       15.9994           0
     35417 WT2      6825     TIP3     H1       HT       0.417000        1.0080           0
     35418 WT2      6825     TIP3     H2       HT       0.417000        1.0080           0
     35419 WT2      6826     TIP3     OH2      OT      -0.834000       15.9994           0
     35420 WT2      6826     TIP3     H1       HT       0.417000        1.0080           0
     35421 WT2      6826     TIP3     H2       HT       0.417000        1.0080           0
     35422 WT2      6827     TIP3     OH2      OT      -0.834000       15.9994           0
     35423 WT2      6827     TIP3     H1       HT       0.417000        1.0080           0
     35424 WT2      6827     TIP3     H2       HT       0.417000        1.0080           0
     35425 WT2      6828     TIP3     OH2      OT      -0.834000       15.9994           0
     35426 WT2      6828     TIP3     H1       HT       0.417000        1.0080           0
     35427 WT2      6828     TIP3     H2       HT       0.417000        1.0080           0
     35428 WT2      6831     TIP3     OH2      OT      -0.834000       15.9994           0
     35429 WT2      6831     TIP3     H1       HT       0.417000        1.0080           0
     35430 WT2      6831     TIP3     H2       HT       0.417000        1.0080           0
     35431 WT2      6832     TIP3     OH2      OT      -0.834000       15.9994           0
     35432 WT2      6832     TIP3     H1       HT       0.417000        1.0080           0
     35433 WT2      6832     TIP3     H2       HT       0.417000        1.0080           0
     35434 WT2      6834     TIP3     OH2      OT      -0.834000       15.9994           0
     35435 WT2      6834     TIP3     H1       HT       0.417000        1.0080           0
     35436 WT2      6834     TIP3     H2       HT       0.417000        1.0080           0
     35437 WT2      6836     TIP3     OH2      OT      -0.834000       15.9994           0
     35438 WT2      6836     TIP3     H1       HT       0.417000        1.0080           0
     35439 WT2      6836     TIP3     H2       HT       0.417000        1.0080           0
     35440 WT2      6846     TIP3     OH2      OT      -0.834000       15.9994           0
     35441 WT2      6846     TIP3     H1       HT       0.417000        1.0080           0
     35442 WT2      6846     TIP3     H2       HT       0.417000        1.0080           0
     35443 WT2      6848     TIP3     OH2      OT      -0.834000       15.9994           0
     35444 WT2      6848     TIP3     H1       HT       0.417000        1.0080           0
     35445 WT2      6848     TIP3     H2       HT       0.417000        1.0080           0
     35446 WT2      6849     TIP3     OH2      OT      -0.834000       15.9994           0
     35447 WT2      6849     TIP3     H1       HT       0.417000        1.0080           0
     35448 WT2      6849     TIP3     H2       HT       0.417000        1.0080           0
     35449 WT2      6850     TIP3     OH2      OT      -0.834000       15.9994           0
     35450 WT2      6850     TIP3     H1       HT       0.417000        1.0080           0
     35451 WT2      6850     TIP3     H2       HT       0.417000        1.0080           0
     35452 WT2      6851     TIP3     OH2      OT      -0.834000       15.9994           0
     35453 WT2      6851     TIP3     H1       HT       0.417000        1.0080           0
     35454 WT2      6851     TIP3     H2       HT       0.417000        1.0080           0
     35455 WT2      6852     TIP3     OH2      OT      -0.834000       15.9994           0
     35456 WT2      6852     TIP3     H1       HT       0.417000        1.0080           0
     35457 WT2      6852     TIP3     H2       HT       0.417000        1.0080           0
     35458 WT2      6853     TIP3     OH2      OT      -0.834000       15.9994           0
     35459 WT2      6853     TIP3     H1       HT       0.417000        1.0080           0
     35460 WT2      6853     TIP3     H2       HT       0.417000        1.0080           0
     35461 WT2      6854     TIP3     OH2      OT      -0.834000       15.9994           0
     35462 WT2      6854     TIP3     H1       HT       0.417000        1.0080           0
     35463 WT2      6854     TIP3     H2       HT       0.417000        1.0080           0
     35464 WT2      6855     TIP3     OH2      OT      -0.834000       15.9994           0
     35465 WT2      6855     TIP3     H1       HT       0.417000        1.0080           0
     35466 WT2      6855     TIP3     H2       HT       0.417000        1.0080           0
     35467 WT2      6856     TIP3     OH2      OT      -0.834000       15.9994           0
     35468 WT2      6856     TIP3     H1       HT       0.417000        1.0080           0
     35469 WT2      6856     TIP3     H2       HT       0.417000        1.0080           0
     35470 WT2      6857     TIP3     OH2      OT      -0.834000       15.9994           0
     35471 WT2      6857     TIP3     H1       HT       0.417000        1.0080           0
     35472 WT2      6857     TIP3     H2       HT       0.417000        1.0080           0
     35473 WT2      6858     TIP3     OH2      OT      -0.834000       15.9994           0
     35474 WT2      6858     TIP3     H1       HT       0.417000        1.0080           0
     35475 WT2      6858     TIP3     H2       HT       0.417000        1.0080           0
     35476 WT2      6866     TIP3     OH2      OT      -0.834000       15.9994           0
     35477 WT2      6866     TIP3     H1       HT       0.417000        1.0080           0
     35478 WT2      6866     TIP3     H2       HT       0.417000        1.0080           0
     35479 WT2      6867     TIP3     OH2      OT      -0.834000       15.9994           0
     35480 WT2      6867     TIP3     H1       HT       0.417000        1.0080           0
     35481 WT2      6867     TIP3     H2       HT       0.417000        1.0080           0
     35482 WT2      6869     TIP3     OH2      OT      -0.834000       15.9994           0
     35483 WT2      6869     TIP3     H1       HT       0.417000        1.0080           0
     35484 WT2      6869     TIP3     H2       HT       0.417000        1.0080           0
     35485 WT2      6870     TIP3     OH2      OT      -0.834000       15.9994           0
     35486 WT2      6870     TIP3     H1       HT       0.417000        1.0080           0
     35487 WT2      6870     TIP3     H2       HT       0.417000        1.0080           0
     35488 WT2      6872     TIP3     OH2      OT      -0.834000       15.9994           0
     35489 WT2      6872     TIP3     H1       HT       0.417000        1.0080           0
     35490 WT2      6872     TIP3     H2       HT       0.417000        1.0080           0
     35491 WT2      6874     TIP3     OH2      OT      -0.834000       15.9994           0
     35492 WT2      6874     TIP3     H1       HT       0.417000        1.0080           0
     35493 WT2      6874     TIP3     H2       HT       0.417000        1.0080           0
     35494 WT2      6875     TIP3     OH2      OT      -0.834000       15.9994           0
     35495 WT2      6875     TIP3     H1       HT       0.417000        1.0080           0
     35496 WT2      6875     TIP3     H2       HT       0.417000        1.0080           0
     35497 WT2      6886     TIP3     OH2      OT      -0.834000       15.9994           0
     35498 WT2      6886     TIP3     H1       HT       0.417000        1.0080           0
     35499 WT2      6886     TIP3     H2       HT       0.417000        1.0080           0
     35500 WT2      6887     TIP3     OH2      OT      -0.834000       15.9994           0
     35501 WT2      6887     TIP3     H1       HT       0.417000        1.0080           0
     35502 WT2      6887     TIP3     H2       HT       0.417000        1.0080           0
     35503 WT2      6889     TIP3     OH2      OT      -0.834000       15.9994           0
     35504 WT2      6889     TIP3     H1       HT       0.417000        1.0080           0
     35505 WT2      6889     TIP3     H2       HT       0.417000        1.0080           0
     35506 WT2      6890     TIP3     OH2      OT      -0.834000       15.9994           0
     35507 WT2      6890     TIP3     H1       HT       0.417000        1.0080           0
     35508 WT2      6890     TIP3     H2       HT       0.417000        1.0080           0
     35509 WT2      6893     TIP3     OH2      OT      -0.834000       15.9994           0
     35510 WT2      6893     TIP3     H1       HT       0.417000        1.0080           0
     35511 WT2      6893     TIP3     H2       HT       0.417000        1.0080           0
     35512 WT2      6895     TIP3     OH2      OT      -0.834000       15.9994           0
     35513 WT2      6895     TIP3     H1       HT       0.417000        1.0080           0
     35514 WT2      6895     TIP3     H2       HT       0.417000        1.0080           0
     35515 WT2      6896     TIP3     OH2      OT      -0.834000       15.9994           0
     35516 WT2      6896     TIP3     H1       HT       0.417000        1.0080           0
     35517 WT2      6896     TIP3     H2       HT       0.417000        1.0080           0
     35518 WT2      6910     TIP3     OH2      OT      -0.834000       15.9994           0
     35519 WT2      6910     TIP3     H1       HT       0.417000        1.0080           0
     35520 WT2      6910     TIP3     H2       HT       0.417000        1.0080           0
     35521 WT2      6911     TIP3     OH2      OT      -0.834000       15.9994           0
     35522 WT2      6911     TIP3     H1       HT       0.417000        1.0080           0
     35523 WT2      6911     TIP3     H2       HT       0.417000        1.0080           0
     35524 WT2      6913     TIP3     OH2      OT      -0.834000       15.9994           0
     35525 WT2      6913     TIP3     H1       HT       0.417000        1.0080           0
     35526 WT2      6913     TIP3     H2       HT       0.417000        1.0080           0
     35527 WT2      6914     TIP3     OH2      OT      -0.834000       15.9994           0
     35528 WT2      6914     TIP3     H1       HT       0.417000        1.0080           0
     35529 WT2      6914     TIP3     H2       HT       0.417000        1.0080           0
     35530 WT2      6915     TIP3     OH2      OT      -0.834000       15.9994           0
     35531 WT2      6915     TIP3     H1       HT       0.417000        1.0080           0
     35532 WT2      6915     TIP3     H2       HT       0.417000        1.0080           0
     35533 WT2      6916     TIP3     OH2      OT      -0.834000       15.9994           0
     35534 WT2      6916     TIP3     H1       HT       0.417000        1.0080           0
     35535 WT2      6916     TIP3     H2       HT       0.417000        1.0080           0
     35536 WT2      6919     TIP3     OH2      OT      -0.834000       15.9994           0
     35537 WT2      6919     TIP3     H1       HT       0.417000        1.0080           0
     35538 WT2      6919     TIP3     H2       HT       0.417000        1.0080           0
     35539 WT2      6928     TIP3     OH2      OT      -0.834000       15.9994           0
     35540 WT2      6928     TIP3     H1       HT       0.417000        1.0080           0
     35541 WT2      6928     TIP3     H2       HT       0.417000        1.0080           0
     35542 WT2      6930     TIP3     OH2      OT      -0.834000       15.9994           0
     35543 WT2      6930     TIP3     H1       HT       0.417000        1.0080           0
     35544 WT2      6930     TIP3     H2       HT       0.417000        1.0080           0
     35545 WT2      6931     TIP3     OH2      OT      -0.834000       15.9994           0
     35546 WT2      6931     TIP3     H1       HT       0.417000        1.0080           0
     35547 WT2      6931     TIP3     H2       HT       0.417000        1.0080           0
     35548 WT2      6932     TIP3     OH2      OT      -0.834000       15.9994           0
     35549 WT2      6932     TIP3     H1       HT       0.417000        1.0080           0
     35550 WT2      6932     TIP3     H2       HT       0.417000        1.0080           0
     35551 WT2      6933     TIP3     OH2      OT      -0.834000       15.9994           0
     35552 WT2      6933     TIP3     H1       HT       0.417000        1.0080           0
     35553 WT2      6933     TIP3     H2       HT       0.417000        1.0080           0
     35554 WT2      6934     TIP3     OH2      OT      -0.834000       15.9994           0
     35555 WT2      6934     TIP3     H1       HT       0.417000        1.0080           0
     35556 WT2      6934     TIP3     H2       HT       0.417000        1.0080           0
     35557 WT2      6935     TIP3     OH2      OT      -0.834000       15.9994           0
     35558 WT2      6935     TIP3     H1       HT       0.417000        1.0080           0
     35559 WT2      6935     TIP3     H2       HT       0.417000        1.0080           0
     35560 WT2      6936     TIP3     OH2      OT      -0.834000       15.9994           0
     35561 WT2      6936     TIP3     H1       HT       0.417000        1.0080           0
     35562 WT2      6936     TIP3     H2       HT       0.417000        1.0080           0
     35563 WT2      6938     TIP3     OH2      OT      -0.834000       15.9994           0
     35564 WT2      6938     TIP3     H1       HT       0.417000        1.0080           0
     35565 WT2      6938     TIP3     H2       HT       0.417000        1.0080           0
     35566 WT2      6952     TIP3     OH2      OT      -0.834000       15.9994           0
     35567 WT2      6952     TIP3     H1       HT       0.417000        1.0080           0
     35568 WT2      6952     TIP3     H2       HT       0.417000        1.0080           0
     35569 WT2      6953     TIP3     OH2      OT      -0.834000       15.9994           0
     35570 WT2      6953     TIP3     H1       HT       0.417000        1.0080           0
     35571 WT2      6953     TIP3     H2       HT       0.417000        1.0080           0
     35572 WT2      6954     TIP3     OH2      OT      -0.834000       15.9994           0
     35573 WT2      6954     TIP3     H1       HT       0.417000        1.0080           0
     35574 WT2      6954     TIP3     H2       HT       0.417000        1.0080           0
     35575 WT2      6955     TIP3     OH2      OT      -0.834000       15.9994           0
     35576 WT2      6955     TIP3     H1       HT       0.417000        1.0080           0
     35577 WT2      6955     TIP3     H2       HT       0.417000        1.0080           0
     35578 WT2      6956     TIP3     OH2      OT      -0.834000       15.9994           0
     35579 WT2      6956     TIP3     H1       HT       0.417000        1.0080           0
     35580 WT2      6956     TIP3     H2       HT       0.417000        1.0080           0
     35581 WT2      6957     TIP3     OH2      OT      -0.834000       15.9994           0
     35582 WT2      6957     TIP3     H1       HT       0.417000        1.0080           0
     35583 WT2      6957     TIP3     H2       HT       0.417000        1.0080           0
     35584 WT2      6958     TIP3     OH2      OT      -0.834000       15.9994           0
     35585 WT2      6958     TIP3     H1       HT       0.417000        1.0080           0
     35586 WT2      6958     TIP3     H2       HT       0.417000        1.0080           0
     35587 WT2      6959     TIP3     OH2      OT      -0.834000       15.9994           0
     35588 WT2      6959     TIP3     H1       HT       0.417000        1.0080           0
     35589 WT2      6959     TIP3     H2       HT       0.417000        1.0080           0
     35590 WT2      6970     TIP3     OH2      OT      -0.834000       15.9994           0
     35591 WT2      6970     TIP3     H1       HT       0.417000        1.0080           0
     35592 WT2      6970     TIP3     H2       HT       0.417000        1.0080           0
     35593 WT2      6973     TIP3     OH2      OT      -0.834000       15.9994           0
     35594 WT2      6973     TIP3     H1       HT       0.417000        1.0080           0
     35595 WT2      6973     TIP3     H2       HT       0.417000        1.0080           0
     35596 WT2      6975     TIP3     OH2      OT      -0.834000       15.9994           0
     35597 WT2      6975     TIP3     H1       HT       0.417000        1.0080           0
     35598 WT2      6975     TIP3     H2       HT       0.417000        1.0080           0
     35599 WT2      6977     TIP3     OH2      OT      -0.834000       15.9994           0
     35600 WT2      6977     TIP3     H1       HT       0.417000        1.0080           0
     35601 WT2      6977     TIP3     H2       HT       0.417000        1.0080           0
     35602 WT2      6978     TIP3     OH2      OT      -0.834000       15.9994           0
     35603 WT2      6978     TIP3     H1       HT       0.417000        1.0080           0
     35604 WT2      6978     TIP3     H2       HT       0.417000        1.0080           0
     35605 WT2      6980     TIP3     OH2      OT      -0.834000       15.9994           0
     35606 WT2      6980     TIP3     H1       HT       0.417000        1.0080           0
     35607 WT2      6980     TIP3     H2       HT       0.417000        1.0080           0
     35608 WT2      6981     TIP3     OH2      OT      -0.834000       15.9994           0
     35609 WT2      6981     TIP3     H1       HT       0.417000        1.0080           0
     35610 WT2      6981     TIP3     H2       HT       0.417000        1.0080           0
     35611 WT2      6993     TIP3     OH2      OT      -0.834000       15.9994           0
     35612 WT2      6993     TIP3     H1       HT       0.417000        1.0080           0
     35613 WT2      6993     TIP3     H2       HT       0.417000        1.0080           0
     35614 WT2      6995     TIP3     OH2      OT      -0.834000       15.9994           0
     35615 WT2      6995     TIP3     H1       HT       0.417000        1.0080           0
     35616 WT2      6995     TIP3     H2       HT       0.417000        1.0080           0
     35617 WT2      6997     TIP3     OH2      OT      -0.834000       15.9994           0
     35618 WT2      6997     TIP3     H1       HT       0.417000        1.0080           0
     35619 WT2      6997     TIP3     H2       HT       0.417000        1.0080           0
     35620 WT2      6998     TIP3     OH2      OT      -0.834000       15.9994           0
     35621 WT2      6998     TIP3     H1       HT       0.417000        1.0080           0
     35622 WT2      6998     TIP3     H2       HT       0.417000        1.0080           0
     35623 WT2      6999     TIP3     OH2      OT      -0.834000       15.9994           0
     35624 WT2      6999     TIP3     H1       HT       0.417000        1.0080           0
     35625 WT2      6999     TIP3     H2       HT       0.417000        1.0080           0
     35626 WT2      7000     TIP3     OH2      OT      -0.834000       15.9994           0
     35627 WT2      7000     TIP3     H1       HT       0.417000        1.0080           0
     35628 WT2      7000     TIP3     H2       HT       0.417000        1.0080           0
     35629 WT2      7002     TIP3     OH2      OT      -0.834000       15.9994           0
     35630 WT2      7002     TIP3     H1       HT       0.417000        1.0080           0
     35631 WT2      7002     TIP3     H2       HT       0.417000        1.0080           0
     35632 WT2      7011     TIP3     OH2      OT      -0.834000       15.9994           0
     35633 WT2      7011     TIP3     H1       HT       0.417000        1.0080           0
     35634 WT2      7011     TIP3     H2       HT       0.417000        1.0080           0
     35635 WT2      7014     TIP3     OH2      OT      -0.834000       15.9994           0
     35636 WT2      7014     TIP3     H1       HT       0.417000        1.0080           0
     35637 WT2      7014     TIP3     H2       HT       0.417000        1.0080           0
     35638 WT2      7015     TIP3     OH2      OT      -0.834000       15.9994           0
     35639 WT2      7015     TIP3     H1       HT       0.417000        1.0080           0
     35640 WT2      7015     TIP3     H2       HT       0.417000        1.0080           0
     35641 WT2      7017     TIP3     OH2      OT      -0.834000       15.9994           0
     35642 WT2      7017     TIP3     H1       HT       0.417000        1.0080           0
     35643 WT2      7017     TIP3     H2       HT       0.417000        1.0080           0
     35644 WT2      7018     TIP3     OH2      OT      -0.834000       15.9994           0
     35645 WT2      7018     TIP3     H1       HT       0.417000        1.0080           0
     35646 WT2      7018     TIP3     H2       HT       0.417000        1.0080           0
     35647 WT2      7019     TIP3     OH2      OT      -0.834000       15.9994           0
     35648 WT2      7019     TIP3     H1       HT       0.417000        1.0080           0
     35649 WT2      7019     TIP3     H2       HT       0.417000        1.0080           0
     35650 WT2      7020     TIP3     OH2      OT      -0.834000       15.9994           0
     35651 WT2      7020     TIP3     H1       HT       0.417000        1.0080           0
     35652 WT2      7020     TIP3     H2       HT       0.417000        1.0080           0
     35653 WT2      7021     TIP3     OH2      OT      -0.834000       15.9994           0
     35654 WT2      7021     TIP3     H1       HT       0.417000        1.0080           0
     35655 WT2      7021     TIP3     H2       HT       0.417000        1.0080           0
     35656 WT2      7023     TIP3     OH2      OT      -0.834000       15.9994           0
     35657 WT2      7023     TIP3     H1       HT       0.417000        1.0080           0
     35658 WT2      7023     TIP3     H2       HT       0.417000        1.0080           0
     35659 WT2      7024     TIP3     OH2      OT      -0.834000       15.9994           0
     35660 WT2      7024     TIP3     H1       HT       0.417000        1.0080           0
     35661 WT2      7024     TIP3     H2       HT       0.417000        1.0080           0
     35662 WT2      7035     TIP3     OH2      OT      -0.834000       15.9994           0
     35663 WT2      7035     TIP3     H1       HT       0.417000        1.0080           0
     35664 WT2      7035     TIP3     H2       HT       0.417000        1.0080           0
     35665 WT2      7038     TIP3     OH2      OT      -0.834000       15.9994           0
     35666 WT2      7038     TIP3     H1       HT       0.417000        1.0080           0
     35667 WT2      7038     TIP3     H2       HT       0.417000        1.0080           0
     35668 WT2      7039     TIP3     OH2      OT      -0.834000       15.9994           0
     35669 WT2      7039     TIP3     H1       HT       0.417000        1.0080           0
     35670 WT2      7039     TIP3     H2       HT       0.417000        1.0080           0
     35671 WT2      7040     TIP3     OH2      OT      -0.834000       15.9994           0
     35672 WT2      7040     TIP3     H1       HT       0.417000        1.0080           0
     35673 WT2      7040     TIP3     H2       HT       0.417000        1.0080           0
     35674 WT2      7041     TIP3     OH2      OT      -0.834000       15.9994           0
     35675 WT2      7041     TIP3     H1       HT       0.417000        1.0080           0
     35676 WT2      7041     TIP3     H2       HT       0.417000        1.0080           0
     35677 WT2      7042     TIP3     OH2      OT      -0.834000       15.9994           0
     35678 WT2      7042     TIP3     H1       HT       0.417000        1.0080           0
     35679 WT2      7042     TIP3     H2       HT       0.417000        1.0080           0
     35680 WT2      7043     TIP3     OH2      OT      -0.834000       15.9994           0
     35681 WT2      7043     TIP3     H1       HT       0.417000        1.0080           0
     35682 WT2      7043     TIP3     H2       HT       0.417000        1.0080           0
     35683 WT2      7044     TIP3     OH2      OT      -0.834000       15.9994           0
     35684 WT2      7044     TIP3     H1       HT       0.417000        1.0080           0
     35685 WT2      7044     TIP3     H2       HT       0.417000        1.0080           0
     35686 WT2      7052     TIP3     OH2      OT      -0.834000       15.9994           0
     35687 WT2      7052     TIP3     H1       HT       0.417000        1.0080           0
     35688 WT2      7052     TIP3     H2       HT       0.417000        1.0080           0
     35689 WT2      7058     TIP3     OH2      OT      -0.834000       15.9994           0
     35690 WT2      7058     TIP3     H1       HT       0.417000        1.0080           0
     35691 WT2      7058     TIP3     H2       HT       0.417000        1.0080           0
     35692 WT2      7059     TIP3     OH2      OT      -0.834000       15.9994           0
     35693 WT2      7059     TIP3     H1       HT       0.417000        1.0080           0
     35694 WT2      7059     TIP3     H2       HT       0.417000        1.0080           0
     35695 WT2      7061     TIP3     OH2      OT      -0.834000       15.9994           0
     35696 WT2      7061     TIP3     H1       HT       0.417000        1.0080           0
     35697 WT2      7061     TIP3     H2       HT       0.417000        1.0080           0
     35698 WT2      7062     TIP3     OH2      OT      -0.834000       15.9994           0
     35699 WT2      7062     TIP3     H1       HT       0.417000        1.0080           0
     35700 WT2      7062     TIP3     H2       HT       0.417000        1.0080           0
     35701 WT2      7063     TIP3     OH2      OT      -0.834000       15.9994           0
     35702 WT2      7063     TIP3     H1       HT       0.417000        1.0080           0
     35703 WT2      7063     TIP3     H2       HT       0.417000        1.0080           0
     35704 WT2      7064     TIP3     OH2      OT      -0.834000       15.9994           0
     35705 WT2      7064     TIP3     H1       HT       0.417000        1.0080           0
     35706 WT2      7064     TIP3     H2       HT       0.417000        1.0080           0
     35707 WT2      7065     TIP3     OH2      OT      -0.834000       15.9994           0
     35708 WT2      7065     TIP3     H1       HT       0.417000        1.0080           0
     35709 WT2      7065     TIP3     H2       HT       0.417000        1.0080           0
     35710 WT2      7066     TIP3     OH2      OT      -0.834000       15.9994           0
     35711 WT2      7066     TIP3     H1       HT       0.417000        1.0080           0
     35712 WT2      7066     TIP3     H2       HT       0.417000        1.0080           0
     35713 WT2      7076     TIP3     OH2      OT      -0.834000       15.9994           0
     35714 WT2      7076     TIP3     H1       HT       0.417000        1.0080           0
     35715 WT2      7076     TIP3     H2       HT       0.417000        1.0080           0
     35716 WT2      7078     TIP3     OH2      OT      -0.834000       15.9994           0
     35717 WT2      7078     TIP3     H1       HT       0.417000        1.0080           0
     35718 WT2      7078     TIP3     H2       HT       0.417000        1.0080           0
     35719 WT2      7081     TIP3     OH2      OT      -0.834000       15.9994           0
     35720 WT2      7081     TIP3     H1       HT       0.417000        1.0080           0
     35721 WT2      7081     TIP3     H2       HT       0.417000        1.0080           0
     35722 WT2      7083     TIP3     OH2      OT      -0.834000       15.9994           0
     35723 WT2      7083     TIP3     H1       HT       0.417000        1.0080           0
     35724 WT2      7083     TIP3     H2       HT       0.417000        1.0080           0
     35725 WT2      7084     TIP3     OH2      OT      -0.834000       15.9994           0
     35726 WT2      7084     TIP3     H1       HT       0.417000        1.0080           0
     35727 WT2      7084     TIP3     H2       HT       0.417000        1.0080           0
     35728 WT2      7100     TIP3     OH2      OT      -0.834000       15.9994           0
     35729 WT2      7100     TIP3     H1       HT       0.417000        1.0080           0
     35730 WT2      7100     TIP3     H2       HT       0.417000        1.0080           0
     35731 WT2      7101     TIP3     OH2      OT      -0.834000       15.9994           0
     35732 WT2      7101     TIP3     H1       HT       0.417000        1.0080           0
     35733 WT2      7101     TIP3     H2       HT       0.417000        1.0080           0
     35734 WT2      7102     TIP3     OH2      OT      -0.834000       15.9994           0
     35735 WT2      7102     TIP3     H1       HT       0.417000        1.0080           0
     35736 WT2      7102     TIP3     H2       HT       0.417000        1.0080           0
     35737 WT2      7104     TIP3     OH2      OT      -0.834000       15.9994           0
     35738 WT2      7104     TIP3     H1       HT       0.417000        1.0080           0
     35739 WT2      7104     TIP3     H2       HT       0.417000        1.0080           0
     35740 WT2      7107     TIP3     OH2      OT      -0.834000       15.9994           0
     35741 WT2      7107     TIP3     H1       HT       0.417000        1.0080           0
     35742 WT2      7107     TIP3     H2       HT       0.417000        1.0080           0
     35743 WT2      7120     TIP3     OH2      OT      -0.834000       15.9994           0
     35744 WT2      7120     TIP3     H1       HT       0.417000        1.0080           0
     35745 WT2      7120     TIP3     H2       HT       0.417000        1.0080           0
     35746 WT2      7121     TIP3     OH2      OT      -0.834000       15.9994           0
     35747 WT2      7121     TIP3     H1       HT       0.417000        1.0080           0
     35748 WT2      7121     TIP3     H2       HT       0.417000        1.0080           0
     35749 WT2      7122     TIP3     OH2      OT      -0.834000       15.9994           0
     35750 WT2      7122     TIP3     H1       HT       0.417000        1.0080           0
     35751 WT2      7122     TIP3     H2       HT       0.417000        1.0080           0
     35752 WT2      7123     TIP3     OH2      OT      -0.834000       15.9994           0
     35753 WT2      7123     TIP3     H1       HT       0.417000        1.0080           0
     35754 WT2      7123     TIP3     H2       HT       0.417000        1.0080           0
     35755 WT2      7124     TIP3     OH2      OT      -0.834000       15.9994           0
     35756 WT2      7124     TIP3     H1       HT       0.417000        1.0080           0
     35757 WT2      7124     TIP3     H2       HT       0.417000        1.0080           0
     35758 WT2      7125     TIP3     OH2      OT      -0.834000       15.9994           0
     35759 WT2      7125     TIP3     H1       HT       0.417000        1.0080           0
     35760 WT2      7125     TIP3     H2       HT       0.417000        1.0080           0
     35761 WT2      7128     TIP3     OH2      OT      -0.834000       15.9994           0
     35762 WT2      7128     TIP3     H1       HT       0.417000        1.0080           0
     35763 WT2      7128     TIP3     H2       HT       0.417000        1.0080           0
     35764 WT2      7132     TIP3     OH2      OT      -0.834000       15.9994           0
     35765 WT2      7132     TIP3     H1       HT       0.417000        1.0080           0
     35766 WT2      7132     TIP3     H2       HT       0.417000        1.0080           0
     35767 WT2      7141     TIP3     OH2      OT      -0.834000       15.9994           0
     35768 WT2      7141     TIP3     H1       HT       0.417000        1.0080           0
     35769 WT2      7141     TIP3     H2       HT       0.417000        1.0080           0
     35770 WT2      7142     TIP3     OH2      OT      -0.834000       15.9994           0
     35771 WT2      7142     TIP3     H1       HT       0.417000        1.0080           0
     35772 WT2      7142     TIP3     H2       HT       0.417000        1.0080           0
     35773 WT2      7143     TIP3     OH2      OT      -0.834000       15.9994           0
     35774 WT2      7143     TIP3     H1       HT       0.417000        1.0080           0
     35775 WT2      7143     TIP3     H2       HT       0.417000        1.0080           0
     35776 WT2      7144     TIP3     OH2      OT      -0.834000       15.9994           0
     35777 WT2      7144     TIP3     H1       HT       0.417000        1.0080           0
     35778 WT2      7144     TIP3     H2       HT       0.417000        1.0080           0
     35779 WT2      7145     TIP3     OH2      OT      -0.834000       15.9994           0
     35780 WT2      7145     TIP3     H1       HT       0.417000        1.0080           0
     35781 WT2      7145     TIP3     H2       HT       0.417000        1.0080           0
     35782 WT2      7146     TIP3     OH2      OT      -0.834000       15.9994           0
     35783 WT2      7146     TIP3     H1       HT       0.417000        1.0080           0
     35784 WT2      7146     TIP3     H2       HT       0.417000        1.0080           0
     35785 WT2      7147     TIP3     OH2      OT      -0.834000       15.9994           0
     35786 WT2      7147     TIP3     H1       HT       0.417000        1.0080           0
     35787 WT2      7147     TIP3     H2       HT       0.417000        1.0080           0
     35788 WT2      7148     TIP3     OH2      OT      -0.834000       15.9994           0
     35789 WT2      7148     TIP3     H1       HT       0.417000        1.0080           0
     35790 WT2      7148     TIP3     H2       HT       0.417000        1.0080           0
     35791 WT2      7161     TIP3     OH2      OT      -0.834000       15.9994           0
     35792 WT2      7161     TIP3     H1       HT       0.417000        1.0080           0
     35793 WT2      7161     TIP3     H2       HT       0.417000        1.0080           0
     35794 WT2      7166     TIP3     OH2      OT      -0.834000       15.9994           0
     35795 WT2      7166     TIP3     H1       HT       0.417000        1.0080           0
     35796 WT2      7166     TIP3     H2       HT       0.417000        1.0080           0
     35797 WT2      7179     TIP3     OH2      OT      -0.834000       15.9994           0
     35798 WT2      7179     TIP3     H1       HT       0.417000        1.0080           0
     35799 WT2      7179     TIP3     H2       HT       0.417000        1.0080           0
     35800 WT2      7181     TIP3     OH2      OT      -0.834000       15.9994           0
     35801 WT2      7181     TIP3     H1       HT       0.417000        1.0080           0
     35802 WT2      7181     TIP3     H2       HT       0.417000        1.0080           0
     35803 WT2      7182     TIP3     OH2      OT      -0.834000       15.9994           0
     35804 WT2      7182     TIP3     H1       HT       0.417000        1.0080           0
     35805 WT2      7182     TIP3     H2       HT       0.417000        1.0080           0
     35806 WT2      7183     TIP3     OH2      OT      -0.834000       15.9994           0
     35807 WT2      7183     TIP3     H1       HT       0.417000        1.0080           0
     35808 WT2      7183     TIP3     H2       HT       0.417000        1.0080           0
     35809 WT2      7184     TIP3     OH2      OT      -0.834000       15.9994           0
     35810 WT2      7184     TIP3     H1       HT       0.417000        1.0080           0
     35811 WT2      7184     TIP3     H2       HT       0.417000        1.0080           0
     35812 WT2      7185     TIP3     OH2      OT      -0.834000       15.9994           0
     35813 WT2      7185     TIP3     H1       HT       0.417000        1.0080           0
     35814 WT2      7185     TIP3     H2       HT       0.417000        1.0080           0
     35815 WT2      7186     TIP3     OH2      OT      -0.834000       15.9994           0
     35816 WT2      7186     TIP3     H1       HT       0.417000        1.0080           0
     35817 WT2      7186     TIP3     H2       HT       0.417000        1.0080           0
     35818 WT2      7187     TIP3     OH2      OT      -0.834000       15.9994           0
     35819 WT2      7187     TIP3     H1       HT       0.417000        1.0080           0
     35820 WT2      7187     TIP3     H2       HT       0.417000        1.0080           0
     35821 WT2      7188     TIP3     OH2      OT      -0.834000       15.9994           0
     35822 WT2      7188     TIP3     H1       HT       0.417000        1.0080           0
     35823 WT2      7188     TIP3     H2       HT       0.417000        1.0080           0
     35824 WT2      7189     TIP3     OH2      OT      -0.834000       15.9994           0
     35825 WT2      7189     TIP3     H1       HT       0.417000        1.0080           0
     35826 WT2      7189     TIP3     H2       HT       0.417000        1.0080           0
     35827 WT2      7190     TIP3     OH2      OT      -0.834000       15.9994           0
     35828 WT2      7190     TIP3     H1       HT       0.417000        1.0080           0
     35829 WT2      7190     TIP3     H2       HT       0.417000        1.0080           0
     35830 WT2      7191     TIP3     OH2      OT      -0.834000       15.9994           0
     35831 WT2      7191     TIP3     H1       HT       0.417000        1.0080           0
     35832 WT2      7191     TIP3     H2       HT       0.417000        1.0080           0
     35833 WT2      7200     TIP3     OH2      OT      -0.834000       15.9994           0
     35834 WT2      7200     TIP3     H1       HT       0.417000        1.0080           0
     35835 WT2      7200     TIP3     H2       HT       0.417000        1.0080           0
     35836 WT2      7203     TIP3     OH2      OT      -0.834000       15.9994           0
     35837 WT2      7203     TIP3     H1       HT       0.417000        1.0080           0
     35838 WT2      7203     TIP3     H2       HT       0.417000        1.0080           0
     35839 WT2      7206     TIP3     OH2      OT      -0.834000       15.9994           0
     35840 WT2      7206     TIP3     H1       HT       0.417000        1.0080           0
     35841 WT2      7206     TIP3     H2       HT       0.417000        1.0080           0
     35842 WT2      7207     TIP3     OH2      OT      -0.834000       15.9994           0
     35843 WT2      7207     TIP3     H1       HT       0.417000        1.0080           0
     35844 WT2      7207     TIP3     H2       HT       0.417000        1.0080           0
     35845 WT2      7209     TIP3     OH2      OT      -0.834000       15.9994           0
     35846 WT2      7209     TIP3     H1       HT       0.417000        1.0080           0
     35847 WT2      7209     TIP3     H2       HT       0.417000        1.0080           0
     35848 WT2      7210     TIP3     OH2      OT      -0.834000       15.9994           0
     35849 WT2      7210     TIP3     H1       HT       0.417000        1.0080           0
     35850 WT2      7210     TIP3     H2       HT       0.417000        1.0080           0
     35851 WT2      7211     TIP3     OH2      OT      -0.834000       15.9994           0
     35852 WT2      7211     TIP3     H1       HT       0.417000        1.0080           0
     35853 WT2      7211     TIP3     H2       HT       0.417000        1.0080           0
     35854 WT2      7212     TIP3     OH2      OT      -0.834000       15.9994           0
     35855 WT2      7212     TIP3     H1       HT       0.417000        1.0080           0
     35856 WT2      7212     TIP3     H2       HT       0.417000        1.0080           0
     35857 WT2      7213     TIP3     OH2      OT      -0.834000       15.9994           0
     35858 WT2      7213     TIP3     H1       HT       0.417000        1.0080           0
     35859 WT2      7213     TIP3     H2       HT       0.417000        1.0080           0
     35860 WT2      7222     TIP3     OH2      OT      -0.834000       15.9994           0
     35861 WT2      7222     TIP3     H1       HT       0.417000        1.0080           0
     35862 WT2      7222     TIP3     H2       HT       0.417000        1.0080           0
     35863 WT2      7226     TIP3     OH2      OT      -0.834000       15.9994           0
     35864 WT2      7226     TIP3     H1       HT       0.417000        1.0080           0
     35865 WT2      7226     TIP3     H2       HT       0.417000        1.0080           0
     35866 WT2      7227     TIP3     OH2      OT      -0.834000       15.9994           0
     35867 WT2      7227     TIP3     H1       HT       0.417000        1.0080           0
     35868 WT2      7227     TIP3     H2       HT       0.417000        1.0080           0
     35869 WT2      7228     TIP3     OH2      OT      -0.834000       15.9994           0
     35870 WT2      7228     TIP3     H1       HT       0.417000        1.0080           0
     35871 WT2      7228     TIP3     H2       HT       0.417000        1.0080           0
     35872 WT2      7229     TIP3     OH2      OT      -0.834000       15.9994           0
     35873 WT2      7229     TIP3     H1       HT       0.417000        1.0080           0
     35874 WT2      7229     TIP3     H2       HT       0.417000        1.0080           0
     35875 WT2      7230     TIP3     OH2      OT      -0.834000       15.9994           0
     35876 WT2      7230     TIP3     H1       HT       0.417000        1.0080           0
     35877 WT2      7230     TIP3     H2       HT       0.417000        1.0080           0
     35878 WT2      7246     TIP3     OH2      OT      -0.834000       15.9994           0
     35879 WT2      7246     TIP3     H1       HT       0.417000        1.0080           0
     35880 WT2      7246     TIP3     H2       HT       0.417000        1.0080           0
     35881 WT2      7247     TIP3     OH2      OT      -0.834000       15.9994           0
     35882 WT2      7247     TIP3     H1       HT       0.417000        1.0080           0
     35883 WT2      7247     TIP3     H2       HT       0.417000        1.0080           0
     35884 WT2      7248     TIP3     OH2      OT      -0.834000       15.9994           0
     35885 WT2      7248     TIP3     H1       HT       0.417000        1.0080           0
     35886 WT2      7248     TIP3     H2       HT       0.417000        1.0080           0
     35887 WT2      7249     TIP3     OH2      OT      -0.834000       15.9994           0
     35888 WT2      7249     TIP3     H1       HT       0.417000        1.0080           0
     35889 WT2      7249     TIP3     H2       HT       0.417000        1.0080           0
     35890 WT2      7250     TIP3     OH2      OT      -0.834000       15.9994           0
     35891 WT2      7250     TIP3     H1       HT       0.417000        1.0080           0
     35892 WT2      7250     TIP3     H2       HT       0.417000        1.0080           0
     35893 WT2      7251     TIP3     OH2      OT      -0.834000       15.9994           0
     35894 WT2      7251     TIP3     H1       HT       0.417000        1.0080           0
     35895 WT2      7251     TIP3     H2       HT       0.417000        1.0080           0
     35896 WT2      7253     TIP3     OH2      OT      -0.834000       15.9994           0
     35897 WT2      7253     TIP3     H1       HT       0.417000        1.0080           0
     35898 WT2      7253     TIP3     H2       HT       0.417000        1.0080           0
     35899 WT2      7254     TIP3     OH2      OT      -0.834000       15.9994           0
     35900 WT2      7254     TIP3     H1       HT       0.417000        1.0080           0
     35901 WT2      7254     TIP3     H2       HT       0.417000        1.0080           0
     35902 WT2      7264     TIP3     OH2      OT      -0.834000       15.9994           0
     35903 WT2      7264     TIP3     H1       HT       0.417000        1.0080           0
     35904 WT2      7264     TIP3     H2       HT       0.417000        1.0080           0
     35905 WT2      7267     TIP3     OH2      OT      -0.834000       15.9994           0
     35906 WT2      7267     TIP3     H1       HT       0.417000        1.0080           0
     35907 WT2      7267     TIP3     H2       HT       0.417000        1.0080           0
     35908 WT2      7268     TIP3     OH2      OT      -0.834000       15.9994           0
     35909 WT2      7268     TIP3     H1       HT       0.417000        1.0080           0
     35910 WT2      7268     TIP3     H2       HT       0.417000        1.0080           0
     35911 WT2      7269     TIP3     OH2      OT      -0.834000       15.9994           0
     35912 WT2      7269     TIP3     H1       HT       0.417000        1.0080           0
     35913 WT2      7269     TIP3     H2       HT       0.417000        1.0080           0
     35914 WT2      7270     TIP3     OH2      OT      -0.834000       15.9994           0
     35915 WT2      7270     TIP3     H1       HT       0.417000        1.0080           0
     35916 WT2      7270     TIP3     H2       HT       0.417000        1.0080           0
     35917 WT2      7271     TIP3     OH2      OT      -0.834000       15.9994           0
     35918 WT2      7271     TIP3     H1       HT       0.417000        1.0080           0
     35919 WT2      7271     TIP3     H2       HT       0.417000        1.0080           0
     35920 WT2      7272     TIP3     OH2      OT      -0.834000       15.9994           0
     35921 WT2      7272     TIP3     H1       HT       0.417000        1.0080           0
     35922 WT2      7272     TIP3     H2       HT       0.417000        1.0080           0
     35923 WT2      7273     TIP3     OH2      OT      -0.834000       15.9994           0
     35924 WT2      7273     TIP3     H1       HT       0.417000        1.0080           0
     35925 WT2      7273     TIP3     H2       HT       0.417000        1.0080           0
     35926 WT2      7276     TIP3     OH2      OT      -0.834000       15.9994           0
     35927 WT2      7276     TIP3     H1       HT       0.417000        1.0080           0
     35928 WT2      7276     TIP3     H2       HT       0.417000        1.0080           0
     35929 WT2      7287     TIP3     OH2      OT      -0.834000       15.9994           0
     35930 WT2      7287     TIP3     H1       HT       0.417000        1.0080           0
     35931 WT2      7287     TIP3     H2       HT       0.417000        1.0080           0
     35932 WT2      7291     TIP3     OH2      OT      -0.834000       15.9994           0
     35933 WT2      7291     TIP3     H1       HT       0.417000        1.0080           0
     35934 WT2      7291     TIP3     H2       HT       0.417000        1.0080           0
     35935 WT2      7293     TIP3     OH2      OT      -0.834000       15.9994           0
     35936 WT2      7293     TIP3     H1       HT       0.417000        1.0080           0
     35937 WT2      7293     TIP3     H2       HT       0.417000        1.0080           0
     35938 WT2      7294     TIP3     OH2      OT      -0.834000       15.9994           0
     35939 WT2      7294     TIP3     H1       HT       0.417000        1.0080           0
     35940 WT2      7294     TIP3     H2       HT       0.417000        1.0080           0
     35941 WT2      7297     TIP3     OH2      OT      -0.834000       15.9994           0
     35942 WT2      7297     TIP3     H1       HT       0.417000        1.0080           0
     35943 WT2      7297     TIP3     H2       HT       0.417000        1.0080           0
     35944 WT2      7307     TIP3     OH2      OT      -0.834000       15.9994           0
     35945 WT2      7307     TIP3     H1       HT       0.417000        1.0080           0
     35946 WT2      7307     TIP3     H2       HT       0.417000        1.0080           0
     35947 WT2      7310     TIP3     OH2      OT      -0.834000       15.9994           0
     35948 WT2      7310     TIP3     H1       HT       0.417000        1.0080           0
     35949 WT2      7310     TIP3     H2       HT       0.417000        1.0080           0
     35950 WT2      7311     TIP3     OH2      OT      -0.834000       15.9994           0
     35951 WT2      7311     TIP3     H1       HT       0.417000        1.0080           0
     35952 WT2      7311     TIP3     H2       HT       0.417000        1.0080           0
     35953 WT2      7312     TIP3     OH2      OT      -0.834000       15.9994           0
     35954 WT2      7312     TIP3     H1       HT       0.417000        1.0080           0
     35955 WT2      7312     TIP3     H2       HT       0.417000        1.0080           0
     35956 WT2      7313     TIP3     OH2      OT      -0.834000       15.9994           0
     35957 WT2      7313     TIP3     H1       HT       0.417000        1.0080           0
     35958 WT2      7313     TIP3     H2       HT       0.417000        1.0080           0
     35959 WT2      7314     TIP3     OH2      OT      -0.834000       15.9994           0
     35960 WT2      7314     TIP3     H1       HT       0.417000        1.0080           0
     35961 WT2      7314     TIP3     H2       HT       0.417000        1.0080           0
     35962 WT2      7315     TIP3     OH2      OT      -0.834000       15.9994           0
     35963 WT2      7315     TIP3     H1       HT       0.417000        1.0080           0
     35964 WT2      7315     TIP3     H2       HT       0.417000        1.0080           0
     35965 WT2      7328     TIP3     OH2      OT      -0.834000       15.9994           0
     35966 WT2      7328     TIP3     H1       HT       0.417000        1.0080           0
     35967 WT2      7328     TIP3     H2       HT       0.417000        1.0080           0
     35968 WT2      7331     TIP3     OH2      OT      -0.834000       15.9994           0
     35969 WT2      7331     TIP3     H1       HT       0.417000        1.0080           0
     35970 WT2      7331     TIP3     H2       HT       0.417000        1.0080           0
     35971 WT2      7333     TIP3     OH2      OT      -0.834000       15.9994           0
     35972 WT2      7333     TIP3     H1       HT       0.417000        1.0080           0
     35973 WT2      7333     TIP3     H2       HT       0.417000        1.0080           0
     35974 WT2      7334     TIP3     OH2      OT      -0.834000       15.9994           0
     35975 WT2      7334     TIP3     H1       HT       0.417000        1.0080           0
     35976 WT2      7334     TIP3     H2       HT       0.417000        1.0080           0
     35977 WT2      7335     TIP3     OH2      OT      -0.834000       15.9994           0
     35978 WT2      7335     TIP3     H1       HT       0.417000        1.0080           0
     35979 WT2      7335     TIP3     H2       HT       0.417000        1.0080           0
     35980 WT2      7336     TIP3     OH2      OT      -0.834000       15.9994           0
     35981 WT2      7336     TIP3     H1       HT       0.417000        1.0080           0
     35982 WT2      7336     TIP3     H2       HT       0.417000        1.0080           0
     35983 WT2      7337     TIP3     OH2      OT      -0.834000       15.9994           0
     35984 WT2      7337     TIP3     H1       HT       0.417000        1.0080           0
     35985 WT2      7337     TIP3     H2       HT       0.417000        1.0080           0
     35986 WT2      7339     TIP3     OH2      OT      -0.834000       15.9994           0
     35987 WT2      7339     TIP3     H1       HT       0.417000        1.0080           0
     35988 WT2      7339     TIP3     H2       HT       0.417000        1.0080           0
     35989 WT2      7351     TIP3     OH2      OT      -0.834000       15.9994           0
     35990 WT2      7351     TIP3     H1       HT       0.417000        1.0080           0
     35991 WT2      7351     TIP3     H2       HT       0.417000        1.0080           0
     35992 WT2      7352     TIP3     OH2      OT      -0.834000       15.9994           0
     35993 WT2      7352     TIP3     H1       HT       0.417000        1.0080           0
     35994 WT2      7352     TIP3     H2       HT       0.417000        1.0080           0
     35995 WT2      7353     TIP3     OH2      OT      -0.834000       15.9994           0
     35996 WT2      7353     TIP3     H1       HT       0.417000        1.0080           0
     35997 WT2      7353     TIP3     H2       HT       0.417000        1.0080           0
     35998 WT2      7354     TIP3     OH2      OT      -0.834000       15.9994           0
     35999 WT2      7354     TIP3     H1       HT       0.417000        1.0080           0
     36000 WT2      7354     TIP3     H2       HT       0.417000        1.0080           0
     36001 WT2      7355     TIP3     OH2      OT      -0.834000       15.9994           0
     36002 WT2      7355     TIP3     H1       HT       0.417000        1.0080           0
     36003 WT2      7355     TIP3     H2       HT       0.417000        1.0080           0
     36004 WT2      7356     TIP3     OH2      OT      -0.834000       15.9994           0
     36005 WT2      7356     TIP3     H1       HT       0.417000        1.0080           0
     36006 WT2      7356     TIP3     H2       HT       0.417000        1.0080           0
     36007 WT2      7357     TIP3     OH2      OT      -0.834000       15.9994           0
     36008 WT2      7357     TIP3     H1       HT       0.417000        1.0080           0
     36009 WT2      7357     TIP3     H2       HT       0.417000        1.0080           0
     36010 WT2      7359     TIP3     OH2      OT      -0.834000       15.9994           0
     36011 WT2      7359     TIP3     H1       HT       0.417000        1.0080           0
     36012 WT2      7359     TIP3     H2       HT       0.417000        1.0080           0
     36013 WT2      7370     TIP3     OH2      OT      -0.834000       15.9994           0
     36014 WT2      7370     TIP3     H1       HT       0.417000        1.0080           0
     36015 WT2      7370     TIP3     H2       HT       0.417000        1.0080           0
     36016 WT2      7371     TIP3     OH2      OT      -0.834000       15.9994           0
     36017 WT2      7371     TIP3     H1       HT       0.417000        1.0080           0
     36018 WT2      7371     TIP3     H2       HT       0.417000        1.0080           0
     36019 WT2      7374     TIP3     OH2      OT      -0.834000       15.9994           0
     36020 WT2      7374     TIP3     H1       HT       0.417000        1.0080           0
     36021 WT2      7374     TIP3     H2       HT       0.417000        1.0080           0
     36022 WT2      7376     TIP3     OH2      OT      -0.834000       15.9994           0
     36023 WT2      7376     TIP3     H1       HT       0.417000        1.0080           0
     36024 WT2      7376     TIP3     H2       HT       0.417000        1.0080           0
     36025 WT2      7378     TIP3     OH2      OT      -0.834000       15.9994           0
     36026 WT2      7378     TIP3     H1       HT       0.417000        1.0080           0
     36027 WT2      7378     TIP3     H2       HT       0.417000        1.0080           0
     36028 WT2      7379     TIP3     OH2      OT      -0.834000       15.9994           0
     36029 WT2      7379     TIP3     H1       HT       0.417000        1.0080           0
     36030 WT2      7379     TIP3     H2       HT       0.417000        1.0080           0
     36031 WT2      7380     TIP3     OH2      OT      -0.834000       15.9994           0
     36032 WT2      7380     TIP3     H1       HT       0.417000        1.0080           0
     36033 WT2      7380     TIP3     H2       HT       0.417000        1.0080           0
     36034 WT2      7381     TIP3     OH2      OT      -0.834000       15.9994           0
     36035 WT2      7381     TIP3     H1       HT       0.417000        1.0080           0
     36036 WT2      7381     TIP3     H2       HT       0.417000        1.0080           0
     36037 WT2      7382     TIP3     OH2      OT      -0.834000       15.9994           0
     36038 WT2      7382     TIP3     H1       HT       0.417000        1.0080           0
     36039 WT2      7382     TIP3     H2       HT       0.417000        1.0080           0
     36040 WT2      7393     TIP3     OH2      OT      -0.834000       15.9994           0
     36041 WT2      7393     TIP3     H1       HT       0.417000        1.0080           0
     36042 WT2      7393     TIP3     H2       HT       0.417000        1.0080           0
     36043 WT2      7394     TIP3     OH2      OT      -0.834000       15.9994           0
     36044 WT2      7394     TIP3     H1       HT       0.417000        1.0080           0
     36045 WT2      7394     TIP3     H2       HT       0.417000        1.0080           0
     36046 WT2      7395     TIP3     OH2      OT      -0.834000       15.9994           0
     36047 WT2      7395     TIP3     H1       HT       0.417000        1.0080           0
     36048 WT2      7395     TIP3     H2       HT       0.417000        1.0080           0
     36049 WT2      7396     TIP3     OH2      OT      -0.834000       15.9994           0
     36050 WT2      7396     TIP3     H1       HT       0.417000        1.0080           0
     36051 WT2      7396     TIP3     H2       HT       0.417000        1.0080           0
     36052 WT2      7397     TIP3     OH2      OT      -0.834000       15.9994           0
     36053 WT2      7397     TIP3     H1       HT       0.417000        1.0080           0
     36054 WT2      7397     TIP3     H2       HT       0.417000        1.0080           0
     36055 WT2      7398     TIP3     OH2      OT      -0.834000       15.9994           0
     36056 WT2      7398     TIP3     H1       HT       0.417000        1.0080           0
     36057 WT2      7398     TIP3     H2       HT       0.417000        1.0080           0
     36058 WT2      7399     TIP3     OH2      OT      -0.834000       15.9994           0
     36059 WT2      7399     TIP3     H1       HT       0.417000        1.0080           0
     36060 WT2      7399     TIP3     H2       HT       0.417000        1.0080           0
     36061 WT2      7400     TIP3     OH2      OT      -0.834000       15.9994           0
     36062 WT2      7400     TIP3     H1       HT       0.417000        1.0080           0
     36063 WT2      7400     TIP3     H2       HT       0.417000        1.0080           0
     36064 WT2      7415     TIP3     OH2      OT      -0.834000       15.9994           0
     36065 WT2      7415     TIP3     H1       HT       0.417000        1.0080           0
     36066 WT2      7415     TIP3     H2       HT       0.417000        1.0080           0
     36067 WT2      7416     TIP3     OH2      OT      -0.834000       15.9994           0
     36068 WT2      7416     TIP3     H1       HT       0.417000        1.0080           0
     36069 WT2      7416     TIP3     H2       HT       0.417000        1.0080           0
     36070 WT2      7418     TIP3     OH2      OT      -0.834000       15.9994           0
     36071 WT2      7418     TIP3     H1       HT       0.417000        1.0080           0
     36072 WT2      7418     TIP3     H2       HT       0.417000        1.0080           0
     36073 WT2      7419     TIP3     OH2      OT      -0.834000       15.9994           0
     36074 WT2      7419     TIP3     H1       HT       0.417000        1.0080           0
     36075 WT2      7419     TIP3     H2       HT       0.417000        1.0080           0
     36076 WT2      7420     TIP3     OH2      OT      -0.834000       15.9994           0
     36077 WT2      7420     TIP3     H1       HT       0.417000        1.0080           0
     36078 WT2      7420     TIP3     H2       HT       0.417000        1.0080           0
     36079 WT2      7421     TIP3     OH2      OT      -0.834000       15.9994           0
     36080 WT2      7421     TIP3     H1       HT       0.417000        1.0080           0
     36081 WT2      7421     TIP3     H2       HT       0.417000        1.0080           0
     36082 WT2      7422     TIP3     OH2      OT      -0.834000       15.9994           0
     36083 WT2      7422     TIP3     H1       HT       0.417000        1.0080           0
     36084 WT2      7422     TIP3     H2       HT       0.417000        1.0080           0
     36085 WT2      7425     TIP3     OH2      OT      -0.834000       15.9994           0
     36086 WT2      7425     TIP3     H1       HT       0.417000        1.0080           0
     36087 WT2      7425     TIP3     H2       HT       0.417000        1.0080           0
     36088 WT2      7434     TIP3     OH2      OT      -0.834000       15.9994           0
     36089 WT2      7434     TIP3     H1       HT       0.417000        1.0080           0
     36090 WT2      7434     TIP3     H2       HT       0.417000        1.0080           0
     36091 WT2      7435     TIP3     OH2      OT      -0.834000       15.9994           0
     36092 WT2      7435     TIP3     H1       HT       0.417000        1.0080           0
     36093 WT2      7435     TIP3     H2       HT       0.417000        1.0080           0
     36094 WT2      7437     TIP3     OH2      OT      -0.834000       15.9994           0
     36095 WT2      7437     TIP3     H1       HT       0.417000        1.0080           0
     36096 WT2      7437     TIP3     H2       HT       0.417000        1.0080           0
     36097 WT2      7438     TIP3     OH2      OT      -0.834000       15.9994           0
     36098 WT2      7438     TIP3     H1       HT       0.417000        1.0080           0
     36099 WT2      7438     TIP3     H2       HT       0.417000        1.0080           0
     36100 WT2      7439     TIP3     OH2      OT      -0.834000       15.9994           0
     36101 WT2      7439     TIP3     H1       HT       0.417000        1.0080           0
     36102 WT2      7439     TIP3     H2       HT       0.417000        1.0080           0
     36103 WT2      7440     TIP3     OH2      OT      -0.834000       15.9994           0
     36104 WT2      7440     TIP3     H1       HT       0.417000        1.0080           0
     36105 WT2      7440     TIP3     H2       HT       0.417000        1.0080           0
     36106 WT2      7441     TIP3     OH2      OT      -0.834000       15.9994           0
     36107 WT2      7441     TIP3     H1       HT       0.417000        1.0080           0
     36108 WT2      7441     TIP3     H2       HT       0.417000        1.0080           0
     36109 WT2      7443     TIP3     OH2      OT      -0.834000       15.9994           0
     36110 WT2      7443     TIP3     H1       HT       0.417000        1.0080           0
     36111 WT2      7443     TIP3     H2       HT       0.417000        1.0080           0
     36112 WT2      7454     TIP3     OH2      OT      -0.834000       15.9994           0
     36113 WT2      7454     TIP3     H1       HT       0.417000        1.0080           0
     36114 WT2      7454     TIP3     H2       HT       0.417000        1.0080           0
     36115 WT2      7455     TIP3     OH2      OT      -0.834000       15.9994           0
     36116 WT2      7455     TIP3     H1       HT       0.417000        1.0080           0
     36117 WT2      7455     TIP3     H2       HT       0.417000        1.0080           0
     36118 WT2      7457     TIP3     OH2      OT      -0.834000       15.9994           0
     36119 WT2      7457     TIP3     H1       HT       0.417000        1.0080           0
     36120 WT2      7457     TIP3     H2       HT       0.417000        1.0080           0
     36121 WT2      7461     TIP3     OH2      OT      -0.834000       15.9994           0
     36122 WT2      7461     TIP3     H1       HT       0.417000        1.0080           0
     36123 WT2      7461     TIP3     H2       HT       0.417000        1.0080           0
     36124 WT2      7463     TIP3     OH2      OT      -0.834000       15.9994           0
     36125 WT2      7463     TIP3     H1       HT       0.417000        1.0080           0
     36126 WT2      7463     TIP3     H2       HT       0.417000        1.0080           0
     36127 WT2      7464     TIP3     OH2      OT      -0.834000       15.9994           0
     36128 WT2      7464     TIP3     H1       HT       0.417000        1.0080           0
     36129 WT2      7464     TIP3     H2       HT       0.417000        1.0080           0
     36130 WT2      7475     TIP3     OH2      OT      -0.834000       15.9994           0
     36131 WT2      7475     TIP3     H1       HT       0.417000        1.0080           0
     36132 WT2      7475     TIP3     H2       HT       0.417000        1.0080           0
     36133 WT2      7477     TIP3     OH2      OT      -0.834000       15.9994           0
     36134 WT2      7477     TIP3     H1       HT       0.417000        1.0080           0
     36135 WT2      7477     TIP3     H2       HT       0.417000        1.0080           0
     36136 WT2      7479     TIP3     OH2      OT      -0.834000       15.9994           0
     36137 WT2      7479     TIP3     H1       HT       0.417000        1.0080           0
     36138 WT2      7479     TIP3     H2       HT       0.417000        1.0080           0
     36139 WT2      7480     TIP3     OH2      OT      -0.834000       15.9994           0
     36140 WT2      7480     TIP3     H1       HT       0.417000        1.0080           0
     36141 WT2      7480     TIP3     H2       HT       0.417000        1.0080           0
     36142 WT2      7481     TIP3     OH2      OT      -0.834000       15.9994           0
     36143 WT2      7481     TIP3     H1       HT       0.417000        1.0080           0
     36144 WT2      7481     TIP3     H2       HT       0.417000        1.0080           0
     36145 WT2      7483     TIP3     OH2      OT      -0.834000       15.9994           0
     36146 WT2      7483     TIP3     H1       HT       0.417000        1.0080           0
     36147 WT2      7483     TIP3     H2       HT       0.417000        1.0080           0
     36148 WT2      7485     TIP3     OH2      OT      -0.834000       15.9994           0
     36149 WT2      7485     TIP3     H1       HT       0.417000        1.0080           0
     36150 WT2      7485     TIP3     H2       HT       0.417000        1.0080           0
     36151 WT2      7489     TIP3     OH2      OT      -0.834000       15.9994           0
     36152 WT2      7489     TIP3     H1       HT       0.417000        1.0080           0
     36153 WT2      7489     TIP3     H2       HT       0.417000        1.0080           0
     36154 WT2      7493     TIP3     OH2      OT      -0.834000       15.9994           0
     36155 WT2      7493     TIP3     H1       HT       0.417000        1.0080           0
     36156 WT2      7493     TIP3     H2       HT       0.417000        1.0080           0
     36157 WT2      7496     TIP3     OH2      OT      -0.834000       15.9994           0
     36158 WT2      7496     TIP3     H1       HT       0.417000        1.0080           0
     36159 WT2      7496     TIP3     H2       HT       0.417000        1.0080           0
     36160 WT2      7498     TIP3     OH2      OT      -0.834000       15.9994           0
     36161 WT2      7498     TIP3     H1       HT       0.417000        1.0080           0
     36162 WT2      7498     TIP3     H2       HT       0.417000        1.0080           0
     36163 WT2      7499     TIP3     OH2      OT      -0.834000       15.9994           0
     36164 WT2      7499     TIP3     H1       HT       0.417000        1.0080           0
     36165 WT2      7499     TIP3     H2       HT       0.417000        1.0080           0
     36166 WT2      7500     TIP3     OH2      OT      -0.834000       15.9994           0
     36167 WT2      7500     TIP3     H1       HT       0.417000        1.0080           0
     36168 WT2      7500     TIP3     H2       HT       0.417000        1.0080           0
     36169 WT2      7501     TIP3     OH2      OT      -0.834000       15.9994           0
     36170 WT2      7501     TIP3     H1       HT       0.417000        1.0080           0
     36171 WT2      7501     TIP3     H2       HT       0.417000        1.0080           0
     36172 WT2      7502     TIP3     OH2      OT      -0.834000       15.9994           0
     36173 WT2      7502     TIP3     H1       HT       0.417000        1.0080           0
     36174 WT2      7502     TIP3     H2       HT       0.417000        1.0080           0
     36175 WT2      7503     TIP3     OH2      OT      -0.834000       15.9994           0
     36176 WT2      7503     TIP3     H1       HT       0.417000        1.0080           0
     36177 WT2      7503     TIP3     H2       HT       0.417000        1.0080           0
     36178 WT2      7504     TIP3     OH2      OT      -0.834000       15.9994           0
     36179 WT2      7504     TIP3     H1       HT       0.417000        1.0080           0
     36180 WT2      7504     TIP3     H2       HT       0.417000        1.0080           0
     36181 WT2      7506     TIP3     OH2      OT      -0.834000       15.9994           0
     36182 WT2      7506     TIP3     H1       HT       0.417000        1.0080           0
     36183 WT2      7506     TIP3     H2       HT       0.417000        1.0080           0
     36184 WT2      7510     TIP3     OH2      OT      -0.834000       15.9994           0
     36185 WT2      7510     TIP3     H1       HT       0.417000        1.0080           0
     36186 WT2      7510     TIP3     H2       HT       0.417000        1.0080           0
     36187 WT2      7515     TIP3     OH2      OT      -0.834000       15.9994           0
     36188 WT2      7515     TIP3     H1       HT       0.417000        1.0080           0
     36189 WT2      7515     TIP3     H2       HT       0.417000        1.0080           0
     36190 WT2      7518     TIP3     OH2      OT      -0.834000       15.9994           0
     36191 WT2      7518     TIP3     H1       HT       0.417000        1.0080           0
     36192 WT2      7518     TIP3     H2       HT       0.417000        1.0080           0
     36193 WT2      7519     TIP3     OH2      OT      -0.834000       15.9994           0
     36194 WT2      7519     TIP3     H1       HT       0.417000        1.0080           0
     36195 WT2      7519     TIP3     H2       HT       0.417000        1.0080           0
     36196 WT2      7521     TIP3     OH2      OT      -0.834000       15.9994           0
     36197 WT2      7521     TIP3     H1       HT       0.417000        1.0080           0
     36198 WT2      7521     TIP3     H2       HT       0.417000        1.0080           0
     36199 WT2      7522     TIP3     OH2      OT      -0.834000       15.9994           0
     36200 WT2      7522     TIP3     H1       HT       0.417000        1.0080           0
     36201 WT2      7522     TIP3     H2       HT       0.417000        1.0080           0
     36202 WT2      7523     TIP3     OH2      OT      -0.834000       15.9994           0
     36203 WT2      7523     TIP3     H1       HT       0.417000        1.0080           0
     36204 WT2      7523     TIP3     H2       HT       0.417000        1.0080           0
     36205 WT2      7525     TIP3     OH2      OT      -0.834000       15.9994           0
     36206 WT2      7525     TIP3     H1       HT       0.417000        1.0080           0
     36207 WT2      7525     TIP3     H2       HT       0.417000        1.0080           0
     36208 WT2      7526     TIP3     OH2      OT      -0.834000       15.9994           0
     36209 WT2      7526     TIP3     H1       HT       0.417000        1.0080           0
     36210 WT2      7526     TIP3     H2       HT       0.417000        1.0080           0
     36211 WT2      7527     TIP3     OH2      OT      -0.834000       15.9994           0
     36212 WT2      7527     TIP3     H1       HT       0.417000        1.0080           0
     36213 WT2      7527     TIP3     H2       HT       0.417000        1.0080           0
     36214 WT2      7541     TIP3     OH2      OT      -0.834000       15.9994           0
     36215 WT2      7541     TIP3     H1       HT       0.417000        1.0080           0
     36216 WT2      7541     TIP3     H2       HT       0.417000        1.0080           0
     36217 WT2      7543     TIP3     OH2      OT      -0.834000       15.9994           0
     36218 WT2      7543     TIP3     H1       HT       0.417000        1.0080           0
     36219 WT2      7543     TIP3     H2       HT       0.417000        1.0080           0
     36220 WT2      7544     TIP3     OH2      OT      -0.834000       15.9994           0
     36221 WT2      7544     TIP3     H1       HT       0.417000        1.0080           0
     36222 WT2      7544     TIP3     H2       HT       0.417000        1.0080           0
     36223 WT2      7545     TIP3     OH2      OT      -0.834000       15.9994           0
     36224 WT2      7545     TIP3     H1       HT       0.417000        1.0080           0
     36225 WT2      7545     TIP3     H2       HT       0.417000        1.0080           0
     36226 WT2      7549     TIP3     OH2      OT      -0.834000       15.9994           0
     36227 WT2      7549     TIP3     H1       HT       0.417000        1.0080           0
     36228 WT2      7549     TIP3     H2       HT       0.417000        1.0080           0
     36229 WT2      7559     TIP3     OH2      OT      -0.834000       15.9994           0
     36230 WT2      7559     TIP3     H1       HT       0.417000        1.0080           0
     36231 WT2      7559     TIP3     H2       HT       0.417000        1.0080           0
     36232 WT2      7561     TIP3     OH2      OT      -0.834000       15.9994           0
     36233 WT2      7561     TIP3     H1       HT       0.417000        1.0080           0
     36234 WT2      7561     TIP3     H2       HT       0.417000        1.0080           0
     36235 WT2      7563     TIP3     OH2      OT      -0.834000       15.9994           0
     36236 WT2      7563     TIP3     H1       HT       0.417000        1.0080           0
     36237 WT2      7563     TIP3     H2       HT       0.417000        1.0080           0
     36238 WT2      7564     TIP3     OH2      OT      -0.834000       15.9994           0
     36239 WT2      7564     TIP3     H1       HT       0.417000        1.0080           0
     36240 WT2      7564     TIP3     H2       HT       0.417000        1.0080           0
     36241 WT2      7565     TIP3     OH2      OT      -0.834000       15.9994           0
     36242 WT2      7565     TIP3     H1       HT       0.417000        1.0080           0
     36243 WT2      7565     TIP3     H2       HT       0.417000        1.0080           0
     36244 WT2      7566     TIP3     OH2      OT      -0.834000       15.9994           0
     36245 WT2      7566     TIP3     H1       HT       0.417000        1.0080           0
     36246 WT2      7566     TIP3     H2       HT       0.417000        1.0080           0
     36247 WT2      7567     TIP3     OH2      OT      -0.834000       15.9994           0
     36248 WT2      7567     TIP3     H1       HT       0.417000        1.0080           0
     36249 WT2      7567     TIP3     H2       HT       0.417000        1.0080           0
     36250 WT2      7582     TIP3     OH2      OT      -0.834000       15.9994           0
     36251 WT2      7582     TIP3     H1       HT       0.417000        1.0080           0
     36252 WT2      7582     TIP3     H2       HT       0.417000        1.0080           0
     36253 WT2      7584     TIP3     OH2      OT      -0.834000       15.9994           0
     36254 WT2      7584     TIP3     H1       HT       0.417000        1.0080           0
     36255 WT2      7584     TIP3     H2       HT       0.417000        1.0080           0
     36256 WT2      7586     TIP3     OH2      OT      -0.834000       15.9994           0
     36257 WT2      7586     TIP3     H1       HT       0.417000        1.0080           0
     36258 WT2      7586     TIP3     H2       HT       0.417000        1.0080           0
     36259 WT2      7587     TIP3     OH2      OT      -0.834000       15.9994           0
     36260 WT2      7587     TIP3     H1       HT       0.417000        1.0080           0
     36261 WT2      7587     TIP3     H2       HT       0.417000        1.0080           0
     36262 WT2      7590     TIP3     OH2      OT      -0.834000       15.9994           0
     36263 WT2      7590     TIP3     H1       HT       0.417000        1.0080           0
     36264 WT2      7590     TIP3     H2       HT       0.417000        1.0080           0
     36265 WT2      7594     TIP3     OH2      OT      -0.834000       15.9994           0
     36266 WT2      7594     TIP3     H1       HT       0.417000        1.0080           0
     36267 WT2      7594     TIP3     H2       HT       0.417000        1.0080           0
     36268 WT2      7602     TIP3     OH2      OT      -0.834000       15.9994           0
     36269 WT2      7602     TIP3     H1       HT       0.417000        1.0080           0
     36270 WT2      7602     TIP3     H2       HT       0.417000        1.0080           0
     36271 WT2      7603     TIP3     OH2      OT      -0.834000       15.9994           0
     36272 WT2      7603     TIP3     H1       HT       0.417000        1.0080           0
     36273 WT2      7603     TIP3     H2       HT       0.417000        1.0080           0
     36274 WT2      7605     TIP3     OH2      OT      -0.834000       15.9994           0
     36275 WT2      7605     TIP3     H1       HT       0.417000        1.0080           0
     36276 WT2      7605     TIP3     H2       HT       0.417000        1.0080           0
     36277 WT2      7608     TIP3     OH2      OT      -0.834000       15.9994           0
     36278 WT2      7608     TIP3     H1       HT       0.417000        1.0080           0
     36279 WT2      7608     TIP3     H2       HT       0.417000        1.0080           0
     36280 WT2      7609     TIP3     OH2      OT      -0.834000       15.9994           0
     36281 WT2      7609     TIP3     H1       HT       0.417000        1.0080           0
     36282 WT2      7609     TIP3     H2       HT       0.417000        1.0080           0
     36283 WT2      7611     TIP3     OH2      OT      -0.834000       15.9994           0
     36284 WT2      7611     TIP3     H1       HT       0.417000        1.0080           0
     36285 WT2      7611     TIP3     H2       HT       0.417000        1.0080           0
     36286 WT2      7612     TIP3     OH2      OT      -0.834000       15.9994           0
     36287 WT2      7612     TIP3     H1       HT       0.417000        1.0080           0
     36288 WT2      7612     TIP3     H2       HT       0.417000        1.0080           0
     36289 WT2      7625     TIP3     OH2      OT      -0.834000       15.9994           0
     36290 WT2      7625     TIP3     H1       HT       0.417000        1.0080           0
     36291 WT2      7625     TIP3     H2       HT       0.417000        1.0080           0
     36292 WT2      7626     TIP3     OH2      OT      -0.834000       15.9994           0
     36293 WT2      7626     TIP3     H1       HT       0.417000        1.0080           0
     36294 WT2      7626     TIP3     H2       HT       0.417000        1.0080           0
     36295 WT2      7628     TIP3     OH2      OT      -0.834000       15.9994           0
     36296 WT2      7628     TIP3     H1       HT       0.417000        1.0080           0
     36297 WT2      7628     TIP3     H2       HT       0.417000        1.0080           0
     36298 WT2      7630     TIP3     OH2      OT      -0.834000       15.9994           0
     36299 WT2      7630     TIP3     H1       HT       0.417000        1.0080           0
     36300 WT2      7630     TIP3     H2       HT       0.417000        1.0080           0
     36301 WT2      7631     TIP3     OH2      OT      -0.834000       15.9994           0
     36302 WT2      7631     TIP3     H1       HT       0.417000        1.0080           0
     36303 WT2      7631     TIP3     H2       HT       0.417000        1.0080           0
     36304 WT2      7643     TIP3     OH2      OT      -0.834000       15.9994           0
     36305 WT2      7643     TIP3     H1       HT       0.417000        1.0080           0
     36306 WT2      7643     TIP3     H2       HT       0.417000        1.0080           0
     36307 WT2      7644     TIP3     OH2      OT      -0.834000       15.9994           0
     36308 WT2      7644     TIP3     H1       HT       0.417000        1.0080           0
     36309 WT2      7644     TIP3     H2       HT       0.417000        1.0080           0
     36310 WT2      7645     TIP3     OH2      OT      -0.834000       15.9994           0
     36311 WT2      7645     TIP3     H1       HT       0.417000        1.0080           0
     36312 WT2      7645     TIP3     H2       HT       0.417000        1.0080           0
     36313 WT2      7646     TIP3     OH2      OT      -0.834000       15.9994           0
     36314 WT2      7646     TIP3     H1       HT       0.417000        1.0080           0
     36315 WT2      7646     TIP3     H2       HT       0.417000        1.0080           0
     36316 WT2      7647     TIP3     OH2      OT      -0.834000       15.9994           0
     36317 WT2      7647     TIP3     H1       HT       0.417000        1.0080           0
     36318 WT2      7647     TIP3     H2       HT       0.417000        1.0080           0
     36319 WT2      7648     TIP3     OH2      OT      -0.834000       15.9994           0
     36320 WT2      7648     TIP3     H1       HT       0.417000        1.0080           0
     36321 WT2      7648     TIP3     H2       HT       0.417000        1.0080           0
     36322 WT2      7649     TIP3     OH2      OT      -0.834000       15.9994           0
     36323 WT2      7649     TIP3     H1       HT       0.417000        1.0080           0
     36324 WT2      7649     TIP3     H2       HT       0.417000        1.0080           0
     36325 WT2      7650     TIP3     OH2      OT      -0.834000       15.9994           0
     36326 WT2      7650     TIP3     H1       HT       0.417000        1.0080           0
     36327 WT2      7650     TIP3     H2       HT       0.417000        1.0080           0
     36328 WT2      7652     TIP3     OH2      OT      -0.834000       15.9994           0
     36329 WT2      7652     TIP3     H1       HT       0.417000        1.0080           0
     36330 WT2      7652     TIP3     H2       HT       0.417000        1.0080           0
     36331 WT2      7653     TIP3     OH2      OT      -0.834000       15.9994           0
     36332 WT2      7653     TIP3     H1       HT       0.417000        1.0080           0
     36333 WT2      7653     TIP3     H2       HT       0.417000        1.0080           0
     36334 WT2      7663     TIP3     OH2      OT      -0.834000       15.9994           0
     36335 WT2      7663     TIP3     H1       HT       0.417000        1.0080           0
     36336 WT2      7663     TIP3     H2       HT       0.417000        1.0080           0
     36337 WT2      7668     TIP3     OH2      OT      -0.834000       15.9994           0
     36338 WT2      7668     TIP3     H1       HT       0.417000        1.0080           0
     36339 WT2      7668     TIP3     H2       HT       0.417000        1.0080           0
     36340 WT2      7669     TIP3     OH2      OT      -0.834000       15.9994           0
     36341 WT2      7669     TIP3     H1       HT       0.417000        1.0080           0
     36342 WT2      7669     TIP3     H2       HT       0.417000        1.0080           0
     36343 WT2      7670     TIP3     OH2      OT      -0.834000       15.9994           0
     36344 WT2      7670     TIP3     H1       HT       0.417000        1.0080           0
     36345 WT2      7670     TIP3     H2       HT       0.417000        1.0080           0
     36346 WT2      7671     TIP3     OH2      OT      -0.834000       15.9994           0
     36347 WT2      7671     TIP3     H1       HT       0.417000        1.0080           0
     36348 WT2      7671     TIP3     H2       HT       0.417000        1.0080           0
     36349 WT2      7673     TIP3     OH2      OT      -0.834000       15.9994           0
     36350 WT2      7673     TIP3     H1       HT       0.417000        1.0080           0
     36351 WT2      7673     TIP3     H2       HT       0.417000        1.0080           0
     36352 WT2      7675     TIP3     OH2      OT      -0.834000       15.9994           0
     36353 WT2      7675     TIP3     H1       HT       0.417000        1.0080           0
     36354 WT2      7675     TIP3     H2       HT       0.417000        1.0080           0
     36355 WT2      7686     TIP3     OH2      OT      -0.834000       15.9994           0
     36356 WT2      7686     TIP3     H1       HT       0.417000        1.0080           0
     36357 WT2      7686     TIP3     H2       HT       0.417000        1.0080           0
     36358 WT2      7688     TIP3     OH2      OT      -0.834000       15.9994           0
     36359 WT2      7688     TIP3     H1       HT       0.417000        1.0080           0
     36360 WT2      7688     TIP3     H2       HT       0.417000        1.0080           0
     36361 WT2      7689     TIP3     OH2      OT      -0.834000       15.9994           0
     36362 WT2      7689     TIP3     H1       HT       0.417000        1.0080           0
     36363 WT2      7689     TIP3     H2       HT       0.417000        1.0080           0
     36364 WT2      7690     TIP3     OH2      OT      -0.834000       15.9994           0
     36365 WT2      7690     TIP3     H1       HT       0.417000        1.0080           0
     36366 WT2      7690     TIP3     H2       HT       0.417000        1.0080           0
     36367 WT2      7691     TIP3     OH2      OT      -0.834000       15.9994           0
     36368 WT2      7691     TIP3     H1       HT       0.417000        1.0080           0
     36369 WT2      7691     TIP3     H2       HT       0.417000        1.0080           0
     36370 WT2      7692     TIP3     OH2      OT      -0.834000       15.9994           0
     36371 WT2      7692     TIP3     H1       HT       0.417000        1.0080           0
     36372 WT2      7692     TIP3     H2       HT       0.417000        1.0080           0
     36373 WT2      7694     TIP3     OH2      OT      -0.834000       15.9994           0
     36374 WT2      7694     TIP3     H1       HT       0.417000        1.0080           0
     36375 WT2      7694     TIP3     H2       HT       0.417000        1.0080           0
     36376 WT2      7695     TIP3     OH2      OT      -0.834000       15.9994           0
     36377 WT2      7695     TIP3     H1       HT       0.417000        1.0080           0
     36378 WT2      7695     TIP3     H2       HT       0.417000        1.0080           0
     36379 WT2      7696     TIP3     OH2      OT      -0.834000       15.9994           0
     36380 WT2      7696     TIP3     H1       HT       0.417000        1.0080           0
     36381 WT2      7696     TIP3     H2       HT       0.417000        1.0080           0
     36382 WT2      7698     TIP3     OH2      OT      -0.834000       15.9994           0
     36383 WT2      7698     TIP3     H1       HT       0.417000        1.0080           0
     36384 WT2      7698     TIP3     H2       HT       0.417000        1.0080           0
     36385 WT2      7705     TIP3     OH2      OT      -0.834000       15.9994           0
     36386 WT2      7705     TIP3     H1       HT       0.417000        1.0080           0
     36387 WT2      7705     TIP3     H2       HT       0.417000        1.0080           0
     36388 WT2      7707     TIP3     OH2      OT      -0.834000       15.9994           0
     36389 WT2      7707     TIP3     H1       HT       0.417000        1.0080           0
     36390 WT2      7707     TIP3     H2       HT       0.417000        1.0080           0
     36391 WT2      7708     TIP3     OH2      OT      -0.834000       15.9994           0
     36392 WT2      7708     TIP3     H1       HT       0.417000        1.0080           0
     36393 WT2      7708     TIP3     H2       HT       0.417000        1.0080           0
     36394 WT2      7710     TIP3     OH2      OT      -0.834000       15.9994           0
     36395 WT2      7710     TIP3     H1       HT       0.417000        1.0080           0
     36396 WT2      7710     TIP3     H2       HT       0.417000        1.0080           0
     36397 WT2      7711     TIP3     OH2      OT      -0.834000       15.9994           0
     36398 WT2      7711     TIP3     H1       HT       0.417000        1.0080           0
     36399 WT2      7711     TIP3     H2       HT       0.417000        1.0080           0
     36400 WT2      7712     TIP3     OH2      OT      -0.834000       15.9994           0
     36401 WT2      7712     TIP3     H1       HT       0.417000        1.0080           0
     36402 WT2      7712     TIP3     H2       HT       0.417000        1.0080           0
     36403 WT2      7713     TIP3     OH2      OT      -0.834000       15.9994           0
     36404 WT2      7713     TIP3     H1       HT       0.417000        1.0080           0
     36405 WT2      7713     TIP3     H2       HT       0.417000        1.0080           0
     36406 WT2      7714     TIP3     OH2      OT      -0.834000       15.9994           0
     36407 WT2      7714     TIP3     H1       HT       0.417000        1.0080           0
     36408 WT2      7714     TIP3     H2       HT       0.417000        1.0080           0
     36409 WT2      7715     TIP3     OH2      OT      -0.834000       15.9994           0
     36410 WT2      7715     TIP3     H1       HT       0.417000        1.0080           0
     36411 WT2      7715     TIP3     H2       HT       0.417000        1.0080           0
     36412 WT2      7716     TIP3     OH2      OT      -0.834000       15.9994           0
     36413 WT2      7716     TIP3     H1       HT       0.417000        1.0080           0
     36414 WT2      7716     TIP3     H2       HT       0.417000        1.0080           0
     36415 WT2      7718     TIP3     OH2      OT      -0.834000       15.9994           0
     36416 WT2      7718     TIP3     H1       HT       0.417000        1.0080           0
     36417 WT2      7718     TIP3     H2       HT       0.417000        1.0080           0
     36418 WT2      7730     TIP3     OH2      OT      -0.834000       15.9994           0
     36419 WT2      7730     TIP3     H1       HT       0.417000        1.0080           0
     36420 WT2      7730     TIP3     H2       HT       0.417000        1.0080           0
     36421 WT2      7731     TIP3     OH2      OT      -0.834000       15.9994           0
     36422 WT2      7731     TIP3     H1       HT       0.417000        1.0080           0
     36423 WT2      7731     TIP3     H2       HT       0.417000        1.0080           0
     36424 WT2      7732     TIP3     OH2      OT      -0.834000       15.9994           0
     36425 WT2      7732     TIP3     H1       HT       0.417000        1.0080           0
     36426 WT2      7732     TIP3     H2       HT       0.417000        1.0080           0
     36427 WT2      7734     TIP3     OH2      OT      -0.834000       15.9994           0
     36428 WT2      7734     TIP3     H1       HT       0.417000        1.0080           0
     36429 WT2      7734     TIP3     H2       HT       0.417000        1.0080           0
     36430 WT2      7735     TIP3     OH2      OT      -0.834000       15.9994           0
     36431 WT2      7735     TIP3     H1       HT       0.417000        1.0080           0
     36432 WT2      7735     TIP3     H2       HT       0.417000        1.0080           0
     36433 WT2      7736     TIP3     OH2      OT      -0.834000       15.9994           0
     36434 WT2      7736     TIP3     H1       HT       0.417000        1.0080           0
     36435 WT2      7736     TIP3     H2       HT       0.417000        1.0080           0
     36436 WT2      7737     TIP3     OH2      OT      -0.834000       15.9994           0
     36437 WT2      7737     TIP3     H1       HT       0.417000        1.0080           0
     36438 WT2      7737     TIP3     H2       HT       0.417000        1.0080           0
     36439 WT2      7739     TIP3     OH2      OT      -0.834000       15.9994           0
     36440 WT2      7739     TIP3     H1       HT       0.417000        1.0080           0
     36441 WT2      7739     TIP3     H2       HT       0.417000        1.0080           0
     36442 WT2      7748     TIP3     OH2      OT      -0.834000       15.9994           0
     36443 WT2      7748     TIP3     H1       HT       0.417000        1.0080           0
     36444 WT2      7748     TIP3     H2       HT       0.417000        1.0080           0
     36445 WT2      7750     TIP3     OH2      OT      -0.834000       15.9994           0
     36446 WT2      7750     TIP3     H1       HT       0.417000        1.0080           0
     36447 WT2      7750     TIP3     H2       HT       0.417000        1.0080           0
     36448 WT2      7751     TIP3     OH2      OT      -0.834000       15.9994           0
     36449 WT2      7751     TIP3     H1       HT       0.417000        1.0080           0
     36450 WT2      7751     TIP3     H2       HT       0.417000        1.0080           0
     36451 WT2      7752     TIP3     OH2      OT      -0.834000       15.9994           0
     36452 WT2      7752     TIP3     H1       HT       0.417000        1.0080           0
     36453 WT2      7752     TIP3     H2       HT       0.417000        1.0080           0
     36454 WT2      7753     TIP3     OH2      OT      -0.834000       15.9994           0
     36455 WT2      7753     TIP3     H1       HT       0.417000        1.0080           0
     36456 WT2      7753     TIP3     H2       HT       0.417000        1.0080           0
     36457 WT2      7754     TIP3     OH2      OT      -0.834000       15.9994           0
     36458 WT2      7754     TIP3     H1       HT       0.417000        1.0080           0
     36459 WT2      7754     TIP3     H2       HT       0.417000        1.0080           0
     36460 WT2      7755     TIP3     OH2      OT      -0.834000       15.9994           0
     36461 WT2      7755     TIP3     H1       HT       0.417000        1.0080           0
     36462 WT2      7755     TIP3     H2       HT       0.417000        1.0080           0
     36463 WT2      7757     TIP3     OH2      OT      -0.834000       15.9994           0
     36464 WT2      7757     TIP3     H1       HT       0.417000        1.0080           0
     36465 WT2      7757     TIP3     H2       HT       0.417000        1.0080           0
     36466 WT2      7771     TIP3     OH2      OT      -0.834000       15.9994           0
     36467 WT2      7771     TIP3     H1       HT       0.417000        1.0080           0
     36468 WT2      7771     TIP3     H2       HT       0.417000        1.0080           0
     36469 WT2      7772     TIP3     OH2      OT      -0.834000       15.9994           0
     36470 WT2      7772     TIP3     H1       HT       0.417000        1.0080           0
     36471 WT2      7772     TIP3     H2       HT       0.417000        1.0080           0
     36472 WT2      7773     TIP3     OH2      OT      -0.834000       15.9994           0
     36473 WT2      7773     TIP3     H1       HT       0.417000        1.0080           0
     36474 WT2      7773     TIP3     H2       HT       0.417000        1.0080           0
     36475 WT2      7774     TIP3     OH2      OT      -0.834000       15.9994           0
     36476 WT2      7774     TIP3     H1       HT       0.417000        1.0080           0
     36477 WT2      7774     TIP3     H2       HT       0.417000        1.0080           0
     36478 WT2      7776     TIP3     OH2      OT      -0.834000       15.9994           0
     36479 WT2      7776     TIP3     H1       HT       0.417000        1.0080           0
     36480 WT2      7776     TIP3     H2       HT       0.417000        1.0080           0
     36481 WT2      7780     TIP3     OH2      OT      -0.834000       15.9994           0
     36482 WT2      7780     TIP3     H1       HT       0.417000        1.0080           0
     36483 WT2      7780     TIP3     H2       HT       0.417000        1.0080           0
     36484 WT2      7791     TIP3     OH2      OT      -0.834000       15.9994           0
     36485 WT2      7791     TIP3     H1       HT       0.417000        1.0080           0
     36486 WT2      7791     TIP3     H2       HT       0.417000        1.0080           0
     36487 WT2      7793     TIP3     OH2      OT      -0.834000       15.9994           0
     36488 WT2      7793     TIP3     H1       HT       0.417000        1.0080           0
     36489 WT2      7793     TIP3     H2       HT       0.417000        1.0080           0
     36490 WT2      7795     TIP3     OH2      OT      -0.834000       15.9994           0
     36491 WT2      7795     TIP3     H1       HT       0.417000        1.0080           0
     36492 WT2      7795     TIP3     H2       HT       0.417000        1.0080           0
     36493 WT2      7796     TIP3     OH2      OT      -0.834000       15.9994           0
     36494 WT2      7796     TIP3     H1       HT       0.417000        1.0080           0
     36495 WT2      7796     TIP3     H2       HT       0.417000        1.0080           0
     36496 WT2      7797     TIP3     OH2      OT      -0.834000       15.9994           0
     36497 WT2      7797     TIP3     H1       HT       0.417000        1.0080           0
     36498 WT2      7797     TIP3     H2       HT       0.417000        1.0080           0
     36499 WT2      7798     TIP3     OH2      OT      -0.834000       15.9994           0
     36500 WT2      7798     TIP3     H1       HT       0.417000        1.0080           0
     36501 WT2      7798     TIP3     H2       HT       0.417000        1.0080           0
     36502 WT2      7799     TIP3     OH2      OT      -0.834000       15.9994           0
     36503 WT2      7799     TIP3     H1       HT       0.417000        1.0080           0
     36504 WT2      7799     TIP3     H2       HT       0.417000        1.0080           0
     36505 WT2      7801     TIP3     OH2      OT      -0.834000       15.9994           0
     36506 WT2      7801     TIP3     H1       HT       0.417000        1.0080           0
     36507 WT2      7801     TIP3     H2       HT       0.417000        1.0080           0
     36508 WT2      7803     TIP3     OH2      OT      -0.834000       15.9994           0
     36509 WT2      7803     TIP3     H1       HT       0.417000        1.0080           0
     36510 WT2      7803     TIP3     H2       HT       0.417000        1.0080           0
     36511 WT2      7806     TIP3     OH2      OT      -0.834000       15.9994           0
     36512 WT2      7806     TIP3     H1       HT       0.417000        1.0080           0
     36513 WT2      7806     TIP3     H2       HT       0.417000        1.0080           0
     36514 WT2      7811     TIP3     OH2      OT      -0.834000       15.9994           0
     36515 WT2      7811     TIP3     H1       HT       0.417000        1.0080           0
     36516 WT2      7811     TIP3     H2       HT       0.417000        1.0080           0
     36517 WT2      7813     TIP3     OH2      OT      -0.834000       15.9994           0
     36518 WT2      7813     TIP3     H1       HT       0.417000        1.0080           0
     36519 WT2      7813     TIP3     H2       HT       0.417000        1.0080           0
     36520 WT2      7815     TIP3     OH2      OT      -0.834000       15.9994           0
     36521 WT2      7815     TIP3     H1       HT       0.417000        1.0080           0
     36522 WT2      7815     TIP3     H2       HT       0.417000        1.0080           0
     36523 WT2      7816     TIP3     OH2      OT      -0.834000       15.9994           0
     36524 WT2      7816     TIP3     H1       HT       0.417000        1.0080           0
     36525 WT2      7816     TIP3     H2       HT       0.417000        1.0080           0
     36526 WT2      7817     TIP3     OH2      OT      -0.834000       15.9994           0
     36527 WT2      7817     TIP3     H1       HT       0.417000        1.0080           0
     36528 WT2      7817     TIP3     H2       HT       0.417000        1.0080           0
     36529 WT2      7818     TIP3     OH2      OT      -0.834000       15.9994           0
     36530 WT2      7818     TIP3     H1       HT       0.417000        1.0080           0
     36531 WT2      7818     TIP3     H2       HT       0.417000        1.0080           0
     36532 WT2      7820     TIP3     OH2      OT      -0.834000       15.9994           0
     36533 WT2      7820     TIP3     H1       HT       0.417000        1.0080           0
     36534 WT2      7820     TIP3     H2       HT       0.417000        1.0080           0
     36535 WT2      7832     TIP3     OH2      OT      -0.834000       15.9994           0
     36536 WT2      7832     TIP3     H1       HT       0.417000        1.0080           0
     36537 WT2      7832     TIP3     H2       HT       0.417000        1.0080           0
     36538 WT2      7833     TIP3     OH2      OT      -0.834000       15.9994           0
     36539 WT2      7833     TIP3     H1       HT       0.417000        1.0080           0
     36540 WT2      7833     TIP3     H2       HT       0.417000        1.0080           0
     36541 WT2      7835     TIP3     OH2      OT      -0.834000       15.9994           0
     36542 WT2      7835     TIP3     H1       HT       0.417000        1.0080           0
     36543 WT2      7835     TIP3     H2       HT       0.417000        1.0080           0
     36544 WT2      7836     TIP3     OH2      OT      -0.834000       15.9994           0
     36545 WT2      7836     TIP3     H1       HT       0.417000        1.0080           0
     36546 WT2      7836     TIP3     H2       HT       0.417000        1.0080           0
     36547 WT2      7837     TIP3     OH2      OT      -0.834000       15.9994           0
     36548 WT2      7837     TIP3     H1       HT       0.417000        1.0080           0
     36549 WT2      7837     TIP3     H2       HT       0.417000        1.0080           0
     36550 WT2      7838     TIP3     OH2      OT      -0.834000       15.9994           0
     36551 WT2      7838     TIP3     H1       HT       0.417000        1.0080           0
     36552 WT2      7838     TIP3     H2       HT       0.417000        1.0080           0
     36553 WT2      7839     TIP3     OH2      OT      -0.834000       15.9994           0
     36554 WT2      7839     TIP3     H1       HT       0.417000        1.0080           0
     36555 WT2      7839     TIP3     H2       HT       0.417000        1.0080           0
     36556 WT2      7840     TIP3     OH2      OT      -0.834000       15.9994           0
     36557 WT2      7840     TIP3     H1       HT       0.417000        1.0080           0
     36558 WT2      7840     TIP3     H2       HT       0.417000        1.0080           0
     36559 WT2      7842     TIP3     OH2      OT      -0.834000       15.9994           0
     36560 WT2      7842     TIP3     H1       HT       0.417000        1.0080           0
     36561 WT2      7842     TIP3     H2       HT       0.417000        1.0080           0
     36562 WT2      7853     TIP3     OH2      OT      -0.834000       15.9994           0
     36563 WT2      7853     TIP3     H1       HT       0.417000        1.0080           0
     36564 WT2      7853     TIP3     H2       HT       0.417000        1.0080           0
     36565 WT2      7854     TIP3     OH2      OT      -0.834000       15.9994           0
     36566 WT2      7854     TIP3     H1       HT       0.417000        1.0080           0
     36567 WT2      7854     TIP3     H2       HT       0.417000        1.0080           0
     36568 WT2      7856     TIP3     OH2      OT      -0.834000       15.9994           0
     36569 WT2      7856     TIP3     H1       HT       0.417000        1.0080           0
     36570 WT2      7856     TIP3     H2       HT       0.417000        1.0080           0
     36571 WT2      7858     TIP3     OH2      OT      -0.834000       15.9994           0
     36572 WT2      7858     TIP3     H1       HT       0.417000        1.0080           0
     36573 WT2      7858     TIP3     H2       HT       0.417000        1.0080           0
     36574 WT2      7859     TIP3     OH2      OT      -0.834000       15.9994           0
     36575 WT2      7859     TIP3     H1       HT       0.417000        1.0080           0
     36576 WT2      7859     TIP3     H2       HT       0.417000        1.0080           0
     36577 WT2      7861     TIP3     OH2      OT      -0.834000       15.9994           0
     36578 WT2      7861     TIP3     H1       HT       0.417000        1.0080           0
     36579 WT2      7861     TIP3     H2       HT       0.417000        1.0080           0
     36580 WT2      7864     TIP3     OH2      OT      -0.834000       15.9994           0
     36581 WT2      7864     TIP3     H1       HT       0.417000        1.0080           0
     36582 WT2      7864     TIP3     H2       HT       0.417000        1.0080           0
     36583 WT2      7865     TIP3     OH2      OT      -0.834000       15.9994           0
     36584 WT2      7865     TIP3     H1       HT       0.417000        1.0080           0
     36585 WT2      7865     TIP3     H2       HT       0.417000        1.0080           0
     36586 WT2      7872     TIP3     OH2      OT      -0.834000       15.9994           0
     36587 WT2      7872     TIP3     H1       HT       0.417000        1.0080           0
     36588 WT2      7872     TIP3     H2       HT       0.417000        1.0080           0
     36589 WT2      7875     TIP3     OH2      OT      -0.834000       15.9994           0
     36590 WT2      7875     TIP3     H1       HT       0.417000        1.0080           0
     36591 WT2      7875     TIP3     H2       HT       0.417000        1.0080           0
     36592 WT2      7878     TIP3     OH2      OT      -0.834000       15.9994           0
     36593 WT2      7878     TIP3     H1       HT       0.417000        1.0080           0
     36594 WT2      7878     TIP3     H2       HT       0.417000        1.0080           0
     36595 WT2      7879     TIP3     OH2      OT      -0.834000       15.9994           0
     36596 WT2      7879     TIP3     H1       HT       0.417000        1.0080           0
     36597 WT2      7879     TIP3     H2       HT       0.417000        1.0080           0
     36598 WT2      7880     TIP3     OH2      OT      -0.834000       15.9994           0
     36599 WT2      7880     TIP3     H1       HT       0.417000        1.0080           0
     36600 WT2      7880     TIP3     H2       HT       0.417000        1.0080           0
     36601 WT2      7882     TIP3     OH2      OT      -0.834000       15.9994           0
     36602 WT2      7882     TIP3     H1       HT       0.417000        1.0080           0
     36603 WT2      7882     TIP3     H2       HT       0.417000        1.0080           0
     36604 WT2      7884     TIP3     OH2      OT      -0.834000       15.9994           0
     36605 WT2      7884     TIP3     H1       HT       0.417000        1.0080           0
     36606 WT2      7884     TIP3     H2       HT       0.417000        1.0080           0
     36607 WT2      7895     TIP3     OH2      OT      -0.834000       15.9994           0
     36608 WT2      7895     TIP3     H1       HT       0.417000        1.0080           0
     36609 WT2      7895     TIP3     H2       HT       0.417000        1.0080           0
     36610 WT2      7899     TIP3     OH2      OT      -0.834000       15.9994           0
     36611 WT2      7899     TIP3     H1       HT       0.417000        1.0080           0
     36612 WT2      7899     TIP3     H2       HT       0.417000        1.0080           0
     36613 WT2      7900     TIP3     OH2      OT      -0.834000       15.9994           0
     36614 WT2      7900     TIP3     H1       HT       0.417000        1.0080           0
     36615 WT2      7900     TIP3     H2       HT       0.417000        1.0080           0
     36616 WT2      7902     TIP3     OH2      OT      -0.834000       15.9994           0
     36617 WT2      7902     TIP3     H1       HT       0.417000        1.0080           0
     36618 WT2      7902     TIP3     H2       HT       0.417000        1.0080           0
     36619 WT2      7905     TIP3     OH2      OT      -0.834000       15.9994           0
     36620 WT2      7905     TIP3     H1       HT       0.417000        1.0080           0
     36621 WT2      7905     TIP3     H2       HT       0.417000        1.0080           0
     36622 WT2      7906     TIP3     OH2      OT      -0.834000       15.9994           0
     36623 WT2      7906     TIP3     H1       HT       0.417000        1.0080           0
     36624 WT2      7906     TIP3     H2       HT       0.417000        1.0080           0
     36625 WT2      7919     TIP3     OH2      OT      -0.834000       15.9994           0
     36626 WT2      7919     TIP3     H1       HT       0.417000        1.0080           0
     36627 WT2      7919     TIP3     H2       HT       0.417000        1.0080           0
     36628 WT2      7920     TIP3     OH2      OT      -0.834000       15.9994           0
     36629 WT2      7920     TIP3     H1       HT       0.417000        1.0080           0
     36630 WT2      7920     TIP3     H2       HT       0.417000        1.0080           0
     36631 WT2      7921     TIP3     OH2      OT      -0.834000       15.9994           0
     36632 WT2      7921     TIP3     H1       HT       0.417000        1.0080           0
     36633 WT2      7921     TIP3     H2       HT       0.417000        1.0080           0
     36634 WT2      7922     TIP3     OH2      OT      -0.834000       15.9994           0
     36635 WT2      7922     TIP3     H1       HT       0.417000        1.0080           0
     36636 WT2      7922     TIP3     H2       HT       0.417000        1.0080           0
     36637 WT2      7923     TIP3     OH2      OT      -0.834000       15.9994           0
     36638 WT2      7923     TIP3     H1       HT       0.417000        1.0080           0
     36639 WT2      7923     TIP3     H2       HT       0.417000        1.0080           0
     36640 WT2      7933     TIP3     OH2      OT      -0.834000       15.9994           0
     36641 WT2      7933     TIP3     H1       HT       0.417000        1.0080           0
     36642 WT2      7933     TIP3     H2       HT       0.417000        1.0080           0
     36643 WT2      7938     TIP3     OH2      OT      -0.834000       15.9994           0
     36644 WT2      7938     TIP3     H1       HT       0.417000        1.0080           0
     36645 WT2      7938     TIP3     H2       HT       0.417000        1.0080           0
     36646 WT2      7939     TIP3     OH2      OT      -0.834000       15.9994           0
     36647 WT2      7939     TIP3     H1       HT       0.417000        1.0080           0
     36648 WT2      7939     TIP3     H2       HT       0.417000        1.0080           0
     36649 WT2      7940     TIP3     OH2      OT      -0.834000       15.9994           0
     36650 WT2      7940     TIP3     H1       HT       0.417000        1.0080           0
     36651 WT2      7940     TIP3     H2       HT       0.417000        1.0080           0
     36652 WT2      7941     TIP3     OH2      OT      -0.834000       15.9994           0
     36653 WT2      7941     TIP3     H1       HT       0.417000        1.0080           0
     36654 WT2      7941     TIP3     H2       HT       0.417000        1.0080           0
     36655 WT2      7942     TIP3     OH2      OT      -0.834000       15.9994           0
     36656 WT2      7942     TIP3     H1       HT       0.417000        1.0080           0
     36657 WT2      7942     TIP3     H2       HT       0.417000        1.0080           0
     36658 WT2      7944     TIP3     OH2      OT      -0.834000       15.9994           0
     36659 WT2      7944     TIP3     H1       HT       0.417000        1.0080           0
     36660 WT2      7944     TIP3     H2       HT       0.417000        1.0080           0
     36661 WT2      7945     TIP3     OH2      OT      -0.834000       15.9994           0
     36662 WT2      7945     TIP3     H1       HT       0.417000        1.0080           0
     36663 WT2      7945     TIP3     H2       HT       0.417000        1.0080           0
     36664 WT2      7946     TIP3     OH2      OT      -0.834000       15.9994           0
     36665 WT2      7946     TIP3     H1       HT       0.417000        1.0080           0
     36666 WT2      7946     TIP3     H2       HT       0.417000        1.0080           0
     36667 WT2      7947     TIP3     OH2      OT      -0.834000       15.9994           0
     36668 WT2      7947     TIP3     H1       HT       0.417000        1.0080           0
     36669 WT2      7947     TIP3     H2       HT       0.417000        1.0080           0
     36670 WT2      7949     TIP3     OH2      OT      -0.834000       15.9994           0
     36671 WT2      7949     TIP3     H1       HT       0.417000        1.0080           0
     36672 WT2      7949     TIP3     H2       HT       0.417000        1.0080           0
     36673 WT2      7959     TIP3     OH2      OT      -0.834000       15.9994           0
     36674 WT2      7959     TIP3     H1       HT       0.417000        1.0080           0
     36675 WT2      7959     TIP3     H2       HT       0.417000        1.0080           0
     36676 WT2      7962     TIP3     OH2      OT      -0.834000       15.9994           0
     36677 WT2      7962     TIP3     H1       HT       0.417000        1.0080           0
     36678 WT2      7962     TIP3     H2       HT       0.417000        1.0080           0
     36679 WT2      7963     TIP3     OH2      OT      -0.834000       15.9994           0
     36680 WT2      7963     TIP3     H1       HT       0.417000        1.0080           0
     36681 WT2      7963     TIP3     H2       HT       0.417000        1.0080           0
     36682 WT2      7964     TIP3     OH2      OT      -0.834000       15.9994           0
     36683 WT2      7964     TIP3     H1       HT       0.417000        1.0080           0
     36684 WT2      7964     TIP3     H2       HT       0.417000        1.0080           0
     36685 WT2      7965     TIP3     OH2      OT      -0.834000       15.9994           0
     36686 WT2      7965     TIP3     H1       HT       0.417000        1.0080           0
     36687 WT2      7965     TIP3     H2       HT       0.417000        1.0080           0
     36688 WT2      7967     TIP3     OH2      OT      -0.834000       15.9994           0
     36689 WT2      7967     TIP3     H1       HT       0.417000        1.0080           0
     36690 WT2      7967     TIP3     H2       HT       0.417000        1.0080           0
     36691 WT2      7969     TIP3     OH2      OT      -0.834000       15.9994           0
     36692 WT2      7969     TIP3     H1       HT       0.417000        1.0080           0
     36693 WT2      7969     TIP3     H2       HT       0.417000        1.0080           0
     36694 WT2      7972     TIP3     OH2      OT      -0.834000       15.9994           0
     36695 WT2      7972     TIP3     H1       HT       0.417000        1.0080           0
     36696 WT2      7972     TIP3     H2       HT       0.417000        1.0080           0
     36697 WT2      7979     TIP3     OH2      OT      -0.834000       15.9994           0
     36698 WT2      7979     TIP3     H1       HT       0.417000        1.0080           0
     36699 WT2      7979     TIP3     H2       HT       0.417000        1.0080           0
     36700 WT2      7981     TIP3     OH2      OT      -0.834000       15.9994           0
     36701 WT2      7981     TIP3     H1       HT       0.417000        1.0080           0
     36702 WT2      7981     TIP3     H2       HT       0.417000        1.0080           0
     36703 WT2      7983     TIP3     OH2      OT      -0.834000       15.9994           0
     36704 WT2      7983     TIP3     H1       HT       0.417000        1.0080           0
     36705 WT2      7983     TIP3     H2       HT       0.417000        1.0080           0
     36706 WT2      7984     TIP3     OH2      OT      -0.834000       15.9994           0
     36707 WT2      7984     TIP3     H1       HT       0.417000        1.0080           0
     36708 WT2      7984     TIP3     H2       HT       0.417000        1.0080           0
     36709 WT2      7985     TIP3     OH2      OT      -0.834000       15.9994           0
     36710 WT2      7985     TIP3     H1       HT       0.417000        1.0080           0
     36711 WT2      7985     TIP3     H2       HT       0.417000        1.0080           0
     36712 WT2      7986     TIP3     OH2      OT      -0.834000       15.9994           0
     36713 WT2      7986     TIP3     H1       HT       0.417000        1.0080           0
     36714 WT2      7986     TIP3     H2       HT       0.417000        1.0080           0
     36715 WT2      7987     TIP3     OH2      OT      -0.834000       15.9994           0
     36716 WT2      7987     TIP3     H1       HT       0.417000        1.0080           0
     36717 WT2      7987     TIP3     H2       HT       0.417000        1.0080           0
     36718 WT2      7989     TIP3     OH2      OT      -0.834000       15.9994           0
     36719 WT2      7989     TIP3     H1       HT       0.417000        1.0080           0
     36720 WT2      7989     TIP3     H2       HT       0.417000        1.0080           0
     36721 WT2      8003     TIP3     OH2      OT      -0.834000       15.9994           0
     36722 WT2      8003     TIP3     H1       HT       0.417000        1.0080           0
     36723 WT2      8003     TIP3     H2       HT       0.417000        1.0080           0
     36724 WT2      8004     TIP3     OH2      OT      -0.834000       15.9994           0
     36725 WT2      8004     TIP3     H1       HT       0.417000        1.0080           0
     36726 WT2      8004     TIP3     H2       HT       0.417000        1.0080           0
     36727 WT2      8005     TIP3     OH2      OT      -0.834000       15.9994           0
     36728 WT2      8005     TIP3     H1       HT       0.417000        1.0080           0
     36729 WT2      8005     TIP3     H2       HT       0.417000        1.0080           0
     36730 WT2      8006     TIP3     OH2      OT      -0.834000       15.9994           0
     36731 WT2      8006     TIP3     H1       HT       0.417000        1.0080           0
     36732 WT2      8006     TIP3     H2       HT       0.417000        1.0080           0
     36733 WT2      8007     TIP3     OH2      OT      -0.834000       15.9994           0
     36734 WT2      8007     TIP3     H1       HT       0.417000        1.0080           0
     36735 WT2      8007     TIP3     H2       HT       0.417000        1.0080           0
     36736 WT2      8012     TIP3     OH2      OT      -0.834000       15.9994           0
     36737 WT2      8012     TIP3     H1       HT       0.417000        1.0080           0
     36738 WT2      8012     TIP3     H2       HT       0.417000        1.0080           0
     36739 WT2      8020     TIP3     OH2      OT      -0.834000       15.9994           0
     36740 WT2      8020     TIP3     H1       HT       0.417000        1.0080           0
     36741 WT2      8020     TIP3     H2       HT       0.417000        1.0080           0
     36742 WT2      8022     TIP3     OH2      OT      -0.834000       15.9994           0
     36743 WT2      8022     TIP3     H1       HT       0.417000        1.0080           0
     36744 WT2      8022     TIP3     H2       HT       0.417000        1.0080           0
     36745 WT2      8023     TIP3     OH2      OT      -0.834000       15.9994           0
     36746 WT2      8023     TIP3     H1       HT       0.417000        1.0080           0
     36747 WT2      8023     TIP3     H2       HT       0.417000        1.0080           0
     36748 WT2      8024     TIP3     OH2      OT      -0.834000       15.9994           0
     36749 WT2      8024     TIP3     H1       HT       0.417000        1.0080           0
     36750 WT2      8024     TIP3     H2       HT       0.417000        1.0080           0
     36751 WT2      8027     TIP3     OH2      OT      -0.834000       15.9994           0
     36752 WT2      8027     TIP3     H1       HT       0.417000        1.0080           0
     36753 WT2      8027     TIP3     H2       HT       0.417000        1.0080           0
     36754 WT2      8029     TIP3     OH2      OT      -0.834000       15.9994           0
     36755 WT2      8029     TIP3     H1       HT       0.417000        1.0080           0
     36756 WT2      8029     TIP3     H2       HT       0.417000        1.0080           0
     36757 WT2      8030     TIP3     OH2      OT      -0.834000       15.9994           0
     36758 WT2      8030     TIP3     H1       HT       0.417000        1.0080           0
     36759 WT2      8030     TIP3     H2       HT       0.417000        1.0080           0
     36760 WT2      8040     TIP3     OH2      OT      -0.834000       15.9994           0
     36761 WT2      8040     TIP3     H1       HT       0.417000        1.0080           0
     36762 WT2      8040     TIP3     H2       HT       0.417000        1.0080           0
     36763 WT2      8041     TIP3     OH2      OT      -0.834000       15.9994           0
     36764 WT2      8041     TIP3     H1       HT       0.417000        1.0080           0
     36765 WT2      8041     TIP3     H2       HT       0.417000        1.0080           0
     36766 WT2      8045     TIP3     OH2      OT      -0.834000       15.9994           0
     36767 WT2      8045     TIP3     H1       HT       0.417000        1.0080           0
     36768 WT2      8045     TIP3     H2       HT       0.417000        1.0080           0
     36769 WT2      8046     TIP3     OH2      OT      -0.834000       15.9994           0
     36770 WT2      8046     TIP3     H1       HT       0.417000        1.0080           0
     36771 WT2      8046     TIP3     H2       HT       0.417000        1.0080           0
     36772 WT2      8047     TIP3     OH2      OT      -0.834000       15.9994           0
     36773 WT2      8047     TIP3     H1       HT       0.417000        1.0080           0
     36774 WT2      8047     TIP3     H2       HT       0.417000        1.0080           0
     36775 WT2      8049     TIP3     OH2      OT      -0.834000       15.9994           0
     36776 WT2      8049     TIP3     H1       HT       0.417000        1.0080           0
     36777 WT2      8049     TIP3     H2       HT       0.417000        1.0080           0
     36778 WT2      8050     TIP3     OH2      OT      -0.834000       15.9994           0
     36779 WT2      8050     TIP3     H1       HT       0.417000        1.0080           0
     36780 WT2      8050     TIP3     H2       HT       0.417000        1.0080           0
     36781 WT2      8051     TIP3     OH2      OT      -0.834000       15.9994           0
     36782 WT2      8051     TIP3     H1       HT       0.417000        1.0080           0
     36783 WT2      8051     TIP3     H2       HT       0.417000        1.0080           0
     36784 WT2      8052     TIP3     OH2      OT      -0.834000       15.9994           0
     36785 WT2      8052     TIP3     H1       HT       0.417000        1.0080           0
     36786 WT2      8052     TIP3     H2       HT       0.417000        1.0080           0
     36787 WT2      8063     TIP3     OH2      OT      -0.834000       15.9994           0
     36788 WT2      8063     TIP3     H1       HT       0.417000        1.0080           0
     36789 WT2      8063     TIP3     H2       HT       0.417000        1.0080           0
     36790 WT2      8064     TIP3     OH2      OT      -0.834000       15.9994           0
     36791 WT2      8064     TIP3     H1       HT       0.417000        1.0080           0
     36792 WT2      8064     TIP3     H2       HT       0.417000        1.0080           0
     36793 WT2      8067     TIP3     OH2      OT      -0.834000       15.9994           0
     36794 WT2      8067     TIP3     H1       HT       0.417000        1.0080           0
     36795 WT2      8067     TIP3     H2       HT       0.417000        1.0080           0
     36796 WT2      8068     TIP3     OH2      OT      -0.834000       15.9994           0
     36797 WT2      8068     TIP3     H1       HT       0.417000        1.0080           0
     36798 WT2      8068     TIP3     H2       HT       0.417000        1.0080           0
     36799 WT2      8069     TIP3     OH2      OT      -0.834000       15.9994           0
     36800 WT2      8069     TIP3     H1       HT       0.417000        1.0080           0
     36801 WT2      8069     TIP3     H2       HT       0.417000        1.0080           0
     36802 WT2      8070     TIP3     OH2      OT      -0.834000       15.9994           0
     36803 WT2      8070     TIP3     H1       HT       0.417000        1.0080           0
     36804 WT2      8070     TIP3     H2       HT       0.417000        1.0080           0
     36805 WT2      8071     TIP3     OH2      OT      -0.834000       15.9994           0
     36806 WT2      8071     TIP3     H1       HT       0.417000        1.0080           0
     36807 WT2      8071     TIP3     H2       HT       0.417000        1.0080           0
     36808 WT2      8075     TIP3     OH2      OT      -0.834000       15.9994           0
     36809 WT2      8075     TIP3     H1       HT       0.417000        1.0080           0
     36810 WT2      8075     TIP3     H2       HT       0.417000        1.0080           0
     36811 WT2      8084     TIP3     OH2      OT      -0.834000       15.9994           0
     36812 WT2      8084     TIP3     H1       HT       0.417000        1.0080           0
     36813 WT2      8084     TIP3     H2       HT       0.417000        1.0080           0
     36814 WT2      8085     TIP3     OH2      OT      -0.834000       15.9994           0
     36815 WT2      8085     TIP3     H1       HT       0.417000        1.0080           0
     36816 WT2      8085     TIP3     H2       HT       0.417000        1.0080           0
     36817 WT2      8087     TIP3     OH2      OT      -0.834000       15.9994           0
     36818 WT2      8087     TIP3     H1       HT       0.417000        1.0080           0
     36819 WT2      8087     TIP3     H2       HT       0.417000        1.0080           0
     36820 WT2      8088     TIP3     OH2      OT      -0.834000       15.9994           0
     36821 WT2      8088     TIP3     H1       HT       0.417000        1.0080           0
     36822 WT2      8088     TIP3     H2       HT       0.417000        1.0080           0
     36823 WT2      8089     TIP3     OH2      OT      -0.834000       15.9994           0
     36824 WT2      8089     TIP3     H1       HT       0.417000        1.0080           0
     36825 WT2      8089     TIP3     H2       HT       0.417000        1.0080           0
     36826 WT2      8091     TIP3     OH2      OT      -0.834000       15.9994           0
     36827 WT2      8091     TIP3     H1       HT       0.417000        1.0080           0
     36828 WT2      8091     TIP3     H2       HT       0.417000        1.0080           0
     36829 WT2      8092     TIP3     OH2      OT      -0.834000       15.9994           0
     36830 WT2      8092     TIP3     H1       HT       0.417000        1.0080           0
     36831 WT2      8092     TIP3     H2       HT       0.417000        1.0080           0
     36832 WT2      8093     TIP3     OH2      OT      -0.834000       15.9994           0
     36833 WT2      8093     TIP3     H1       HT       0.417000        1.0080           0
     36834 WT2      8093     TIP3     H2       HT       0.417000        1.0080           0
     36835 WT2      8095     TIP3     OH2      OT      -0.834000       15.9994           0
     36836 WT2      8095     TIP3     H1       HT       0.417000        1.0080           0
     36837 WT2      8095     TIP3     H2       HT       0.417000        1.0080           0
     36838 WT2      8096     TIP3     OH2      OT      -0.834000       15.9994           0
     36839 WT2      8096     TIP3     H1       HT       0.417000        1.0080           0
     36840 WT2      8096     TIP3     H2       HT       0.417000        1.0080           0
     36841 WT2      8104     TIP3     OH2      OT      -0.834000       15.9994           0
     36842 WT2      8104     TIP3     H1       HT       0.417000        1.0080           0
     36843 WT2      8104     TIP3     H2       HT       0.417000        1.0080           0
     36844 WT2      8106     TIP3     OH2      OT      -0.834000       15.9994           0
     36845 WT2      8106     TIP3     H1       HT       0.417000        1.0080           0
     36846 WT2      8106     TIP3     H2       HT       0.417000        1.0080           0
     36847 WT2      8107     TIP3     OH2      OT      -0.834000       15.9994           0
     36848 WT2      8107     TIP3     H1       HT       0.417000        1.0080           0
     36849 WT2      8107     TIP3     H2       HT       0.417000        1.0080           0
     36850 WT2      8109     TIP3     OH2      OT      -0.834000       15.9994           0
     36851 WT2      8109     TIP3     H1       HT       0.417000        1.0080           0
     36852 WT2      8109     TIP3     H2       HT       0.417000        1.0080           0
     36853 WT2      8110     TIP3     OH2      OT      -0.834000       15.9994           0
     36854 WT2      8110     TIP3     H1       HT       0.417000        1.0080           0
     36855 WT2      8110     TIP3     H2       HT       0.417000        1.0080           0
     36856 WT2      8111     TIP3     OH2      OT      -0.834000       15.9994           0
     36857 WT2      8111     TIP3     H1       HT       0.417000        1.0080           0
     36858 WT2      8111     TIP3     H2       HT       0.417000        1.0080           0
     36859 WT2      8112     TIP3     OH2      OT      -0.834000       15.9994           0
     36860 WT2      8112     TIP3     H1       HT       0.417000        1.0080           0
     36861 WT2      8112     TIP3     H2       HT       0.417000        1.0080           0
     36862 WT2      8113     TIP3     OH2      OT      -0.834000       15.9994           0
     36863 WT2      8113     TIP3     H1       HT       0.417000        1.0080           0
     36864 WT2      8113     TIP3     H2       HT       0.417000        1.0080           0
     36865 WT2      8114     TIP3     OH2      OT      -0.834000       15.9994           0
     36866 WT2      8114     TIP3     H1       HT       0.417000        1.0080           0
     36867 WT2      8114     TIP3     H2       HT       0.417000        1.0080           0
     36868 WT2      8126     TIP3     OH2      OT      -0.834000       15.9994           0
     36869 WT2      8126     TIP3     H1       HT       0.417000        1.0080           0
     36870 WT2      8126     TIP3     H2       HT       0.417000        1.0080           0
     36871 WT2      8129     TIP3     OH2      OT      -0.834000       15.9994           0
     36872 WT2      8129     TIP3     H1       HT       0.417000        1.0080           0
     36873 WT2      8129     TIP3     H2       HT       0.417000        1.0080           0
     36874 WT2      8131     TIP3     OH2      OT      -0.834000       15.9994           0
     36875 WT2      8131     TIP3     H1       HT       0.417000        1.0080           0
     36876 WT2      8131     TIP3     H2       HT       0.417000        1.0080           0
     36877 WT2      8135     TIP3     OH2      OT      -0.834000       15.9994           0
     36878 WT2      8135     TIP3     H1       HT       0.417000        1.0080           0
     36879 WT2      8135     TIP3     H2       HT       0.417000        1.0080           0
     36880 WT2      8136     TIP3     OH2      OT      -0.834000       15.9994           0
     36881 WT2      8136     TIP3     H1       HT       0.417000        1.0080           0
     36882 WT2      8136     TIP3     H2       HT       0.417000        1.0080           0
     36883 WT2      8150     TIP3     OH2      OT      -0.834000       15.9994           0
     36884 WT2      8150     TIP3     H1       HT       0.417000        1.0080           0
     36885 WT2      8150     TIP3     H2       HT       0.417000        1.0080           0
     36886 WT2      8152     TIP3     OH2      OT      -0.834000       15.9994           0
     36887 WT2      8152     TIP3     H1       HT       0.417000        1.0080           0
     36888 WT2      8152     TIP3     H2       HT       0.417000        1.0080           0
     36889 WT2      8154     TIP3     OH2      OT      -0.834000       15.9994           0
     36890 WT2      8154     TIP3     H1       HT       0.417000        1.0080           0
     36891 WT2      8154     TIP3     H2       HT       0.417000        1.0080           0
     36892 WT2      8155     TIP3     OH2      OT      -0.834000       15.9994           0
     36893 WT2      8155     TIP3     H1       HT       0.417000        1.0080           0
     36894 WT2      8155     TIP3     H2       HT       0.417000        1.0080           0
     36895 WT2      8157     TIP3     OH2      OT      -0.834000       15.9994           0
     36896 WT2      8157     TIP3     H1       HT       0.417000        1.0080           0
     36897 WT2      8157     TIP3     H2       HT       0.417000        1.0080           0
     36898 WT2      8159     TIP3     OH2      OT      -0.834000       15.9994           0
     36899 WT2      8159     TIP3     H1       HT       0.417000        1.0080           0
     36900 WT2      8159     TIP3     H2       HT       0.417000        1.0080           0
     36901 WT2      8169     TIP3     OH2      OT      -0.834000       15.9994           0
     36902 WT2      8169     TIP3     H1       HT       0.417000        1.0080           0
     36903 WT2      8169     TIP3     H2       HT       0.417000        1.0080           0
     36904 WT2      8171     TIP3     OH2      OT      -0.834000       15.9994           0
     36905 WT2      8171     TIP3     H1       HT       0.417000        1.0080           0
     36906 WT2      8171     TIP3     H2       HT       0.417000        1.0080           0
     36907 WT2      8173     TIP3     OH2      OT      -0.834000       15.9994           0
     36908 WT2      8173     TIP3     H1       HT       0.417000        1.0080           0
     36909 WT2      8173     TIP3     H2       HT       0.417000        1.0080           0
     36910 WT2      8174     TIP3     OH2      OT      -0.834000       15.9994           0
     36911 WT2      8174     TIP3     H1       HT       0.417000        1.0080           0
     36912 WT2      8174     TIP3     H2       HT       0.417000        1.0080           0
     36913 WT2      8178     TIP3     OH2      OT      -0.834000       15.9994           0
     36914 WT2      8178     TIP3     H1       HT       0.417000        1.0080           0
     36915 WT2      8178     TIP3     H2       HT       0.417000        1.0080           0
     36916 WT2      8179     TIP3     OH2      OT      -0.834000       15.9994           0
     36917 WT2      8179     TIP3     H1       HT       0.417000        1.0080           0
     36918 WT2      8179     TIP3     H2       HT       0.417000        1.0080           0
     36919 WT2      8181     TIP3     OH2      OT      -0.834000       15.9994           0
     36920 WT2      8181     TIP3     H1       HT       0.417000        1.0080           0
     36921 WT2      8181     TIP3     H2       HT       0.417000        1.0080           0
     36922 WT2      8192     TIP3     OH2      OT      -0.834000       15.9994           0
     36923 WT2      8192     TIP3     H1       HT       0.417000        1.0080           0
     36924 WT2      8192     TIP3     H2       HT       0.417000        1.0080           0
     36925 WT2      8193     TIP3     OH2      OT      -0.834000       15.9994           0
     36926 WT2      8193     TIP3     H1       HT       0.417000        1.0080           0
     36927 WT2      8193     TIP3     H2       HT       0.417000        1.0080           0
     36928 WT2      8194     TIP3     OH2      OT      -0.834000       15.9994           0
     36929 WT2      8194     TIP3     H1       HT       0.417000        1.0080           0
     36930 WT2      8194     TIP3     H2       HT       0.417000        1.0080           0
     36931 WT2      8196     TIP3     OH2      OT      -0.834000       15.9994           0
     36932 WT2      8196     TIP3     H1       HT       0.417000        1.0080           0
     36933 WT2      8196     TIP3     H2       HT       0.417000        1.0080           0
     36934 WT2      8197     TIP3     OH2      OT      -0.834000       15.9994           0
     36935 WT2      8197     TIP3     H1       HT       0.417000        1.0080           0
     36936 WT2      8197     TIP3     H2       HT       0.417000        1.0080           0
     36937 WT2      8198     TIP3     OH2      OT      -0.834000       15.9994           0
     36938 WT2      8198     TIP3     H1       HT       0.417000        1.0080           0
     36939 WT2      8198     TIP3     H2       HT       0.417000        1.0080           0
     36940 WT2      8200     TIP3     OH2      OT      -0.834000       15.9994           0
     36941 WT2      8200     TIP3     H1       HT       0.417000        1.0080           0
     36942 WT2      8200     TIP3     H2       HT       0.417000        1.0080           0
     36943 WT2      8211     TIP3     OH2      OT      -0.834000       15.9994           0
     36944 WT2      8211     TIP3     H1       HT       0.417000        1.0080           0
     36945 WT2      8211     TIP3     H2       HT       0.417000        1.0080           0
     36946 WT2      8212     TIP3     OH2      OT      -0.834000       15.9994           0
     36947 WT2      8212     TIP3     H1       HT       0.417000        1.0080           0
     36948 WT2      8212     TIP3     H2       HT       0.417000        1.0080           0
     36949 WT2      8215     TIP3     OH2      OT      -0.834000       15.9994           0
     36950 WT2      8215     TIP3     H1       HT       0.417000        1.0080           0
     36951 WT2      8215     TIP3     H2       HT       0.417000        1.0080           0
     36952 WT2      8216     TIP3     OH2      OT      -0.834000       15.9994           0
     36953 WT2      8216     TIP3     H1       HT       0.417000        1.0080           0
     36954 WT2      8216     TIP3     H2       HT       0.417000        1.0080           0
     36955 WT2      8218     TIP3     OH2      OT      -0.834000       15.9994           0
     36956 WT2      8218     TIP3     H1       HT       0.417000        1.0080           0
     36957 WT2      8218     TIP3     H2       HT       0.417000        1.0080           0
     36958 WT2      8219     TIP3     OH2      OT      -0.834000       15.9994           0
     36959 WT2      8219     TIP3     H1       HT       0.417000        1.0080           0
     36960 WT2      8219     TIP3     H2       HT       0.417000        1.0080           0
     36961 WT2      8231     TIP3     OH2      OT      -0.834000       15.9994           0
     36962 WT2      8231     TIP3     H1       HT       0.417000        1.0080           0
     36963 WT2      8231     TIP3     H2       HT       0.417000        1.0080           0
     36964 WT2      8233     TIP3     OH2      OT      -0.834000       15.9994           0
     36965 WT2      8233     TIP3     H1       HT       0.417000        1.0080           0
     36966 WT2      8233     TIP3     H2       HT       0.417000        1.0080           0
     36967 WT2      8234     TIP3     OH2      OT      -0.834000       15.9994           0
     36968 WT2      8234     TIP3     H1       HT       0.417000        1.0080           0
     36969 WT2      8234     TIP3     H2       HT       0.417000        1.0080           0
     36970 WT2      8235     TIP3     OH2      OT      -0.834000       15.9994           0
     36971 WT2      8235     TIP3     H1       HT       0.417000        1.0080           0
     36972 WT2      8235     TIP3     H2       HT       0.417000        1.0080           0
     36973 WT2      8237     TIP3     OH2      OT      -0.834000       15.9994           0
     36974 WT2      8237     TIP3     H1       HT       0.417000        1.0080           0
     36975 WT2      8237     TIP3     H2       HT       0.417000        1.0080           0
     36976 WT2      8239     TIP3     OH2      OT      -0.834000       15.9994           0
     36977 WT2      8239     TIP3     H1       HT       0.417000        1.0080           0
     36978 WT2      8239     TIP3     H2       HT       0.417000        1.0080           0
     36979 WT2      8240     TIP3     OH2      OT      -0.834000       15.9994           0
     36980 WT2      8240     TIP3     H1       HT       0.417000        1.0080           0
     36981 WT2      8240     TIP3     H2       HT       0.417000        1.0080           0
     36982 WT2      8242     TIP3     OH2      OT      -0.834000       15.9994           0
     36983 WT2      8242     TIP3     H1       HT       0.417000        1.0080           0
     36984 WT2      8242     TIP3     H2       HT       0.417000        1.0080           0
     36985 WT2      8254     TIP3     OH2      OT      -0.834000       15.9994           0
     36986 WT2      8254     TIP3     H1       HT       0.417000        1.0080           0
     36987 WT2      8254     TIP3     H2       HT       0.417000        1.0080           0
     36988 WT2      8256     TIP3     OH2      OT      -0.834000       15.9994           0
     36989 WT2      8256     TIP3     H1       HT       0.417000        1.0080           0
     36990 WT2      8256     TIP3     H2       HT       0.417000        1.0080           0
     36991 WT2      8257     TIP3     OH2      OT      -0.834000       15.9994           0
     36992 WT2      8257     TIP3     H1       HT       0.417000        1.0080           0
     36993 WT2      8257     TIP3     H2       HT       0.417000        1.0080           0
     36994 WT2      8258     TIP3     OH2      OT      -0.834000       15.9994           0
     36995 WT2      8258     TIP3     H1       HT       0.417000        1.0080           0
     36996 WT2      8258     TIP3     H2       HT       0.417000        1.0080           0
     36997 WT2      8259     TIP3     OH2      OT      -0.834000       15.9994           0
     36998 WT2      8259     TIP3     H1       HT       0.417000        1.0080           0
     36999 WT2      8259     TIP3     H2       HT       0.417000        1.0080           0
     37000 WT2      8260     TIP3     OH2      OT      -0.834000       15.9994           0
     37001 WT2      8260     TIP3     H1       HT       0.417000        1.0080           0
     37002 WT2      8260     TIP3     H2       HT       0.417000        1.0080           0
     37003 WT2      8276     TIP3     OH2      OT      -0.834000       15.9994           0
     37004 WT2      8276     TIP3     H1       HT       0.417000        1.0080           0
     37005 WT2      8276     TIP3     H2       HT       0.417000        1.0080           0
     37006 WT2      8277     TIP3     OH2      OT      -0.834000       15.9994           0
     37007 WT2      8277     TIP3     H1       HT       0.417000        1.0080           0
     37008 WT2      8277     TIP3     H2       HT       0.417000        1.0080           0
     37009 WT2      8278     TIP3     OH2      OT      -0.834000       15.9994           0
     37010 WT2      8278     TIP3     H1       HT       0.417000        1.0080           0
     37011 WT2      8278     TIP3     H2       HT       0.417000        1.0080           0
     37012 WT2      8279     TIP3     OH2      OT      -0.834000       15.9994           0
     37013 WT2      8279     TIP3     H1       HT       0.417000        1.0080           0
     37014 WT2      8279     TIP3     H2       HT       0.417000        1.0080           0
     37015 WT2      8280     TIP3     OH2      OT      -0.834000       15.9994           0
     37016 WT2      8280     TIP3     H1       HT       0.417000        1.0080           0
     37017 WT2      8280     TIP3     H2       HT       0.417000        1.0080           0
     37018 WT2      8281     TIP3     OH2      OT      -0.834000       15.9994           0
     37019 WT2      8281     TIP3     H1       HT       0.417000        1.0080           0
     37020 WT2      8281     TIP3     H2       HT       0.417000        1.0080           0
     37021 WT2      8282     TIP3     OH2      OT      -0.834000       15.9994           0
     37022 WT2      8282     TIP3     H1       HT       0.417000        1.0080           0
     37023 WT2      8282     TIP3     H2       HT       0.417000        1.0080           0
     37024 WT2      8296     TIP3     OH2      OT      -0.834000       15.9994           0
     37025 WT2      8296     TIP3     H1       HT       0.417000        1.0080           0
     37026 WT2      8296     TIP3     H2       HT       0.417000        1.0080           0
     37027 WT2      8297     TIP3     OH2      OT      -0.834000       15.9994           0
     37028 WT2      8297     TIP3     H1       HT       0.417000        1.0080           0
     37029 WT2      8297     TIP3     H2       HT       0.417000        1.0080           0
     37030 WT2      8299     TIP3     OH2      OT      -0.834000       15.9994           0
     37031 WT2      8299     TIP3     H1       HT       0.417000        1.0080           0
     37032 WT2      8299     TIP3     H2       HT       0.417000        1.0080           0
     37033 WT2      8300     TIP3     OH2      OT      -0.834000       15.9994           0
     37034 WT2      8300     TIP3     H1       HT       0.417000        1.0080           0
     37035 WT2      8300     TIP3     H2       HT       0.417000        1.0080           0
     37036 WT2      8301     TIP3     OH2      OT      -0.834000       15.9994           0
     37037 WT2      8301     TIP3     H1       HT       0.417000        1.0080           0
     37038 WT2      8301     TIP3     H2       HT       0.417000        1.0080           0
     37039 WT2      8302     TIP3     OH2      OT      -0.834000       15.9994           0
     37040 WT2      8302     TIP3     H1       HT       0.417000        1.0080           0
     37041 WT2      8302     TIP3     H2       HT       0.417000        1.0080           0
     37042 WT2      8303     TIP3     OH2      OT      -0.834000       15.9994           0
     37043 WT2      8303     TIP3     H1       HT       0.417000        1.0080           0
     37044 WT2      8303     TIP3     H2       HT       0.417000        1.0080           0
     37045 WT2      8305     TIP3     OH2      OT      -0.834000       15.9994           0
     37046 WT2      8305     TIP3     H1       HT       0.417000        1.0080           0
     37047 WT2      8305     TIP3     H2       HT       0.417000        1.0080           0
     37048 WT2      8315     TIP3     OH2      OT      -0.834000       15.9994           0
     37049 WT2      8315     TIP3     H1       HT       0.417000        1.0080           0
     37050 WT2      8315     TIP3     H2       HT       0.417000        1.0080           0
     37051 WT2      8317     TIP3     OH2      OT      -0.834000       15.9994           0
     37052 WT2      8317     TIP3     H1       HT       0.417000        1.0080           0
     37053 WT2      8317     TIP3     H2       HT       0.417000        1.0080           0
     37054 WT2      8319     TIP3     OH2      OT      -0.834000       15.9994           0
     37055 WT2      8319     TIP3     H1       HT       0.417000        1.0080           0
     37056 WT2      8319     TIP3     H2       HT       0.417000        1.0080           0
     37057 WT2      8322     TIP3     OH2      OT      -0.834000       15.9994           0
     37058 WT2      8322     TIP3     H1       HT       0.417000        1.0080           0
     37059 WT2      8322     TIP3     H2       HT       0.417000        1.0080           0
     37060 WT2      8323     TIP3     OH2      OT      -0.834000       15.9994           0
     37061 WT2      8323     TIP3     H1       HT       0.417000        1.0080           0
     37062 WT2      8323     TIP3     H2       HT       0.417000        1.0080           0
     37063 WT2      8324     TIP3     OH2      OT      -0.834000       15.9994           0
     37064 WT2      8324     TIP3     H1       HT       0.417000        1.0080           0
     37065 WT2      8324     TIP3     H2       HT       0.417000        1.0080           0
     37066 WT2      8325     TIP3     OH2      OT      -0.834000       15.9994           0
     37067 WT2      8325     TIP3     H1       HT       0.417000        1.0080           0
     37068 WT2      8325     TIP3     H2       HT       0.417000        1.0080           0
     37069 WT2      8338     TIP3     OH2      OT      -0.834000       15.9994           0
     37070 WT2      8338     TIP3     H1       HT       0.417000        1.0080           0
     37071 WT2      8338     TIP3     H2       HT       0.417000        1.0080           0
     37072 WT2      8339     TIP3     OH2      OT      -0.834000       15.9994           0
     37073 WT2      8339     TIP3     H1       HT       0.417000        1.0080           0
     37074 WT2      8339     TIP3     H2       HT       0.417000        1.0080           0
     37075 WT2      8340     TIP3     OH2      OT      -0.834000       15.9994           0
     37076 WT2      8340     TIP3     H1       HT       0.417000        1.0080           0
     37077 WT2      8340     TIP3     H2       HT       0.417000        1.0080           0
     37078 WT2      8344     TIP3     OH2      OT      -0.834000       15.9994           0
     37079 WT2      8344     TIP3     H1       HT       0.417000        1.0080           0
     37080 WT2      8344     TIP3     H2       HT       0.417000        1.0080           0
     37081 WT2      8345     TIP3     OH2      OT      -0.834000       15.9994           0
     37082 WT2      8345     TIP3     H1       HT       0.417000        1.0080           0
     37083 WT2      8345     TIP3     H2       HT       0.417000        1.0080           0
     37084 WT2      8347     TIP3     OH2      OT      -0.834000       15.9994           0
     37085 WT2      8347     TIP3     H1       HT       0.417000        1.0080           0
     37086 WT2      8347     TIP3     H2       HT       0.417000        1.0080           0
     37087 WT2      8362     TIP3     OH2      OT      -0.834000       15.9994           0
     37088 WT2      8362     TIP3     H1       HT       0.417000        1.0080           0
     37089 WT2      8362     TIP3     H2       HT       0.417000        1.0080           0
     37090 WT2      8363     TIP3     OH2      OT      -0.834000       15.9994           0
     37091 WT2      8363     TIP3     H1       HT       0.417000        1.0080           0
     37092 WT2      8363     TIP3     H2       HT       0.417000        1.0080           0
     37093 WT2      8364     TIP3     OH2      OT      -0.834000       15.9994           0
     37094 WT2      8364     TIP3     H1       HT       0.417000        1.0080           0
     37095 WT2      8364     TIP3     H2       HT       0.417000        1.0080           0
     37096 WT2      8365     TIP3     OH2      OT      -0.834000       15.9994           0
     37097 WT2      8365     TIP3     H1       HT       0.417000        1.0080           0
     37098 WT2      8365     TIP3     H2       HT       0.417000        1.0080           0
     37099 WT2      8366     TIP3     OH2      OT      -0.834000       15.9994           0
     37100 WT2      8366     TIP3     H1       HT       0.417000        1.0080           0
     37101 WT2      8366     TIP3     H2       HT       0.417000        1.0080           0
     37102 WT2      8367     TIP3     OH2      OT      -0.834000       15.9994           0
     37103 WT2      8367     TIP3     H1       HT       0.417000        1.0080           0
     37104 WT2      8367     TIP3     H2       HT       0.417000        1.0080           0
     37105 WT2      8377     TIP3     OH2      OT      -0.834000       15.9994           0
     37106 WT2      8377     TIP3     H1       HT       0.417000        1.0080           0
     37107 WT2      8377     TIP3     H2       HT       0.417000        1.0080           0
     37108 WT2      8378     TIP3     OH2      OT      -0.834000       15.9994           0
     37109 WT2      8378     TIP3     H1       HT       0.417000        1.0080           0
     37110 WT2      8378     TIP3     H2       HT       0.417000        1.0080           0
     37111 WT2      8379     TIP3     OH2      OT      -0.834000       15.9994           0
     37112 WT2      8379     TIP3     H1       HT       0.417000        1.0080           0
     37113 WT2      8379     TIP3     H2       HT       0.417000        1.0080           0
     37114 WT2      8380     TIP3     OH2      OT      -0.834000       15.9994           0
     37115 WT2      8380     TIP3     H1       HT       0.417000        1.0080           0
     37116 WT2      8380     TIP3     H2       HT       0.417000        1.0080           0
     37117 WT2      8381     TIP3     OH2      OT      -0.834000       15.9994           0
     37118 WT2      8381     TIP3     H1       HT       0.417000        1.0080           0
     37119 WT2      8381     TIP3     H2       HT       0.417000        1.0080           0
     37120 WT2      8382     TIP3     OH2      OT      -0.834000       15.9994           0
     37121 WT2      8382     TIP3     H1       HT       0.417000        1.0080           0
     37122 WT2      8382     TIP3     H2       HT       0.417000        1.0080           0
     37123 WT2      8383     TIP3     OH2      OT      -0.834000       15.9994           0
     37124 WT2      8383     TIP3     H1       HT       0.417000        1.0080           0
     37125 WT2      8383     TIP3     H2       HT       0.417000        1.0080           0
     37126 WT2      8384     TIP3     OH2      OT      -0.834000       15.9994           0
     37127 WT2      8384     TIP3     H1       HT       0.417000        1.0080           0
     37128 WT2      8384     TIP3     H2       HT       0.417000        1.0080           0
     37129 WT2      8385     TIP3     OH2      OT      -0.834000       15.9994           0
     37130 WT2      8385     TIP3     H1       HT       0.417000        1.0080           0
     37131 WT2      8385     TIP3     H2       HT       0.417000        1.0080           0
     37132 WT2      8386     TIP3     OH2      OT      -0.834000       15.9994           0
     37133 WT2      8386     TIP3     H1       HT       0.417000        1.0080           0
     37134 WT2      8386     TIP3     H2       HT       0.417000        1.0080           0
     37135 WT2      8388     TIP3     OH2      OT      -0.834000       15.9994           0
     37136 WT2      8388     TIP3     H1       HT       0.417000        1.0080           0
     37137 WT2      8388     TIP3     H2       HT       0.417000        1.0080           0
     37138 WT2      8389     TIP3     OH2      OT      -0.834000       15.9994           0
     37139 WT2      8389     TIP3     H1       HT       0.417000        1.0080           0
     37140 WT2      8389     TIP3     H2       HT       0.417000        1.0080           0
     37141 WT2      8390     TIP3     OH2      OT      -0.834000       15.9994           0
     37142 WT2      8390     TIP3     H1       HT       0.417000        1.0080           0
     37143 WT2      8390     TIP3     H2       HT       0.417000        1.0080           0
     37144 WT2      8403     TIP3     OH2      OT      -0.834000       15.9994           0
     37145 WT2      8403     TIP3     H1       HT       0.417000        1.0080           0
     37146 WT2      8403     TIP3     H2       HT       0.417000        1.0080           0
     37147 WT2      8404     TIP3     OH2      OT      -0.834000       15.9994           0
     37148 WT2      8404     TIP3     H1       HT       0.417000        1.0080           0
     37149 WT2      8404     TIP3     H2       HT       0.417000        1.0080           0
     37150 WT2      8405     TIP3     OH2      OT      -0.834000       15.9994           0
     37151 WT2      8405     TIP3     H1       HT       0.417000        1.0080           0
     37152 WT2      8405     TIP3     H2       HT       0.417000        1.0080           0
     37153 WT2      8406     TIP3     OH2      OT      -0.834000       15.9994           0
     37154 WT2      8406     TIP3     H1       HT       0.417000        1.0080           0
     37155 WT2      8406     TIP3     H2       HT       0.417000        1.0080           0
     37156 WT2      8407     TIP3     OH2      OT      -0.834000       15.9994           0
     37157 WT2      8407     TIP3     H1       HT       0.417000        1.0080           0
     37158 WT2      8407     TIP3     H2       HT       0.417000        1.0080           0
     37159 WT2      8409     TIP3     OH2      OT      -0.834000       15.9994           0
     37160 WT2      8409     TIP3     H1       HT       0.417000        1.0080           0
     37161 WT2      8409     TIP3     H2       HT       0.417000        1.0080           0
     37162 WT2      8411     TIP3     OH2      OT      -0.834000       15.9994           0
     37163 WT2      8411     TIP3     H1       HT       0.417000        1.0080           0
     37164 WT2      8411     TIP3     H2       HT       0.417000        1.0080           0
     37165 WT2      8425     TIP3     OH2      OT      -0.834000       15.9994           0
     37166 WT2      8425     TIP3     H1       HT       0.417000        1.0080           0
     37167 WT2      8425     TIP3     H2       HT       0.417000        1.0080           0
     37168 WT2      8427     TIP3     OH2      OT      -0.834000       15.9994           0
     37169 WT2      8427     TIP3     H1       HT       0.417000        1.0080           0
     37170 WT2      8427     TIP3     H2       HT       0.417000        1.0080           0
     37171 WT2      8428     TIP3     OH2      OT      -0.834000       15.9994           0
     37172 WT2      8428     TIP3     H1       HT       0.417000        1.0080           0
     37173 WT2      8428     TIP3     H2       HT       0.417000        1.0080           0
     37174 WT2      8431     TIP3     OH2      OT      -0.834000       15.9994           0
     37175 WT2      8431     TIP3     H1       HT       0.417000        1.0080           0
     37176 WT2      8431     TIP3     H2       HT       0.417000        1.0080           0
     37177 WT2      8432     TIP3     OH2      OT      -0.834000       15.9994           0
     37178 WT2      8432     TIP3     H1       HT       0.417000        1.0080           0
     37179 WT2      8432     TIP3     H2       HT       0.417000        1.0080           0
     37180 WT2      8441     TIP3     OH2      OT      -0.834000       15.9994           0
     37181 WT2      8441     TIP3     H1       HT       0.417000        1.0080           0
     37182 WT2      8441     TIP3     H2       HT       0.417000        1.0080           0
     37183 WT2      8442     TIP3     OH2      OT      -0.834000       15.9994           0
     37184 WT2      8442     TIP3     H1       HT       0.417000        1.0080           0
     37185 WT2      8442     TIP3     H2       HT       0.417000        1.0080           0
     37186 WT2      8444     TIP3     OH2      OT      -0.834000       15.9994           0
     37187 WT2      8444     TIP3     H1       HT       0.417000        1.0080           0
     37188 WT2      8444     TIP3     H2       HT       0.417000        1.0080           0
     37189 WT2      8445     TIP3     OH2      OT      -0.834000       15.9994           0
     37190 WT2      8445     TIP3     H1       HT       0.417000        1.0080           0
     37191 WT2      8445     TIP3     H2       HT       0.417000        1.0080           0
     37192 WT2      8446     TIP3     OH2      OT      -0.834000       15.9994           0
     37193 WT2      8446     TIP3     H1       HT       0.417000        1.0080           0
     37194 WT2      8446     TIP3     H2       HT       0.417000        1.0080           0
     37195 WT2      8449     TIP3     OH2      OT      -0.834000       15.9994           0
     37196 WT2      8449     TIP3     H1       HT       0.417000        1.0080           0
     37197 WT2      8449     TIP3     H2       HT       0.417000        1.0080           0
     37198 WT2      8455     TIP3     OH2      OT      -0.834000       15.9994           0
     37199 WT2      8455     TIP3     H1       HT       0.417000        1.0080           0
     37200 WT2      8455     TIP3     H2       HT       0.417000        1.0080           0
     37201 WT2      8462     TIP3     OH2      OT      -0.834000       15.9994           0
     37202 WT2      8462     TIP3     H1       HT       0.417000        1.0080           0
     37203 WT2      8462     TIP3     H2       HT       0.417000        1.0080           0
     37204 WT2      8463     TIP3     OH2      OT      -0.834000       15.9994           0
     37205 WT2      8463     TIP3     H1       HT       0.417000        1.0080           0
     37206 WT2      8463     TIP3     H2       HT       0.417000        1.0080           0
     37207 WT2      8465     TIP3     OH2      OT      -0.834000       15.9994           0
     37208 WT2      8465     TIP3     H1       HT       0.417000        1.0080           0
     37209 WT2      8465     TIP3     H2       HT       0.417000        1.0080           0
     37210 WT2      8466     TIP3     OH2      OT      -0.834000       15.9994           0
     37211 WT2      8466     TIP3     H1       HT       0.417000        1.0080           0
     37212 WT2      8466     TIP3     H2       HT       0.417000        1.0080           0
     37213 WT2      8468     TIP3     OH2      OT      -0.834000       15.9994           0
     37214 WT2      8468     TIP3     H1       HT       0.417000        1.0080           0
     37215 WT2      8468     TIP3     H2       HT       0.417000        1.0080           0
     37216 WT2      8471     TIP3     OH2      OT      -0.834000       15.9994           0
     37217 WT2      8471     TIP3     H1       HT       0.417000        1.0080           0
     37218 WT2      8471     TIP3     H2       HT       0.417000        1.0080           0
     37219 WT2      8486     TIP3     OH2      OT      -0.834000       15.9994           0
     37220 WT2      8486     TIP3     H1       HT       0.417000        1.0080           0
     37221 WT2      8486     TIP3     H2       HT       0.417000        1.0080           0
     37222 WT2      8487     TIP3     OH2      OT      -0.834000       15.9994           0
     37223 WT2      8487     TIP3     H1       HT       0.417000        1.0080           0
     37224 WT2      8487     TIP3     H2       HT       0.417000        1.0080           0
     37225 WT2      8488     TIP3     OH2      OT      -0.834000       15.9994           0
     37226 WT2      8488     TIP3     H1       HT       0.417000        1.0080           0
     37227 WT2      8488     TIP3     H2       HT       0.417000        1.0080           0
     37228 WT2      8489     TIP3     OH2      OT      -0.834000       15.9994           0
     37229 WT2      8489     TIP3     H1       HT       0.417000        1.0080           0
     37230 WT2      8489     TIP3     H2       HT       0.417000        1.0080           0
     37231 WT2      8490     TIP3     OH2      OT      -0.834000       15.9994           0
     37232 WT2      8490     TIP3     H1       HT       0.417000        1.0080           0
     37233 WT2      8490     TIP3     H2       HT       0.417000        1.0080           0
     37234 WT2      8491     TIP3     OH2      OT      -0.834000       15.9994           0
     37235 WT2      8491     TIP3     H1       HT       0.417000        1.0080           0
     37236 WT2      8491     TIP3     H2       HT       0.417000        1.0080           0
     37237 WT2      8493     TIP3     OH2      OT      -0.834000       15.9994           0
     37238 WT2      8493     TIP3     H1       HT       0.417000        1.0080           0
     37239 WT2      8493     TIP3     H2       HT       0.417000        1.0080           0
     37240 WT2      8504     TIP3     OH2      OT      -0.834000       15.9994           0
     37241 WT2      8504     TIP3     H1       HT       0.417000        1.0080           0
     37242 WT2      8504     TIP3     H2       HT       0.417000        1.0080           0
     37243 WT2      8505     TIP3     OH2      OT      -0.834000       15.9994           0
     37244 WT2      8505     TIP3     H1       HT       0.417000        1.0080           0
     37245 WT2      8505     TIP3     H2       HT       0.417000        1.0080           0
     37246 WT2      8506     TIP3     OH2      OT      -0.834000       15.9994           0
     37247 WT2      8506     TIP3     H1       HT       0.417000        1.0080           0
     37248 WT2      8506     TIP3     H2       HT       0.417000        1.0080           0
     37249 WT2      8507     TIP3     OH2      OT      -0.834000       15.9994           0
     37250 WT2      8507     TIP3     H1       HT       0.417000        1.0080           0
     37251 WT2      8507     TIP3     H2       HT       0.417000        1.0080           0
     37252 WT2      8508     TIP3     OH2      OT      -0.834000       15.9994           0
     37253 WT2      8508     TIP3     H1       HT       0.417000        1.0080           0
     37254 WT2      8508     TIP3     H2       HT       0.417000        1.0080           0
     37255 WT2      8509     TIP3     OH2      OT      -0.834000       15.9994           0
     37256 WT2      8509     TIP3     H1       HT       0.417000        1.0080           0
     37257 WT2      8509     TIP3     H2       HT       0.417000        1.0080           0
     37258 WT2      8513     TIP3     OH2      OT      -0.834000       15.9994           0
     37259 WT2      8513     TIP3     H1       HT       0.417000        1.0080           0
     37260 WT2      8513     TIP3     H2       HT       0.417000        1.0080           0
     37261 WT2      8515     TIP3     OH2      OT      -0.834000       15.9994           0
     37262 WT2      8515     TIP3     H1       HT       0.417000        1.0080           0
     37263 WT2      8515     TIP3     H2       HT       0.417000        1.0080           0
     37264 WT2      8516     TIP3     OH2      OT      -0.834000       15.9994           0
     37265 WT2      8516     TIP3     H1       HT       0.417000        1.0080           0
     37266 WT2      8516     TIP3     H2       HT       0.417000        1.0080           0
     37267 WT2      8528     TIP3     OH2      OT      -0.834000       15.9994           0
     37268 WT2      8528     TIP3     H1       HT       0.417000        1.0080           0
     37269 WT2      8528     TIP3     H2       HT       0.417000        1.0080           0
     37270 WT2      8529     TIP3     OH2      OT      -0.834000       15.9994           0
     37271 WT2      8529     TIP3     H1       HT       0.417000        1.0080           0
     37272 WT2      8529     TIP3     H2       HT       0.417000        1.0080           0
     37273 WT2      8530     TIP3     OH2      OT      -0.834000       15.9994           0
     37274 WT2      8530     TIP3     H1       HT       0.417000        1.0080           0
     37275 WT2      8530     TIP3     H2       HT       0.417000        1.0080           0
     37276 WT2      8531     TIP3     OH2      OT      -0.834000       15.9994           0
     37277 WT2      8531     TIP3     H1       HT       0.417000        1.0080           0
     37278 WT2      8531     TIP3     H2       HT       0.417000        1.0080           0
     37279 WT2      8532     TIP3     OH2      OT      -0.834000       15.9994           0
     37280 WT2      8532     TIP3     H1       HT       0.417000        1.0080           0
     37281 WT2      8532     TIP3     H2       HT       0.417000        1.0080           0
     37282 WT2      8533     TIP3     OH2      OT      -0.834000       15.9994           0
     37283 WT2      8533     TIP3     H1       HT       0.417000        1.0080           0
     37284 WT2      8533     TIP3     H2       HT       0.417000        1.0080           0
     37285 WT2      8534     TIP3     OH2      OT      -0.834000       15.9994           0
     37286 WT2      8534     TIP3     H1       HT       0.417000        1.0080           0
     37287 WT2      8534     TIP3     H2       HT       0.417000        1.0080           0
     37288 WT2      8535     TIP3     OH2      OT      -0.834000       15.9994           0
     37289 WT2      8535     TIP3     H1       HT       0.417000        1.0080           0
     37290 WT2      8535     TIP3     H2       HT       0.417000        1.0080           0
     37291 WT2      8536     TIP3     OH2      OT      -0.834000       15.9994           0
     37292 WT2      8536     TIP3     H1       HT       0.417000        1.0080           0
     37293 WT2      8536     TIP3     H2       HT       0.417000        1.0080           0
     37294 WT2      8539     TIP3     OH2      OT      -0.834000       15.9994           0
     37295 WT2      8539     TIP3     H1       HT       0.417000        1.0080           0
     37296 WT2      8539     TIP3     H2       HT       0.417000        1.0080           0
     37297 WT2      8543     TIP3     OH2      OT      -0.834000       15.9994           0
     37298 WT2      8543     TIP3     H1       HT       0.417000        1.0080           0
     37299 WT2      8543     TIP3     H2       HT       0.417000        1.0080           0
     37300 WT2      8548     TIP3     OH2      OT      -0.834000       15.9994           0
     37301 WT2      8548     TIP3     H1       HT       0.417000        1.0080           0
     37302 WT2      8548     TIP3     H2       HT       0.417000        1.0080           0
     37303 WT2      8549     TIP3     OH2      OT      -0.834000       15.9994           0
     37304 WT2      8549     TIP3     H1       HT       0.417000        1.0080           0
     37305 WT2      8549     TIP3     H2       HT       0.417000        1.0080           0
     37306 WT2      8550     TIP3     OH2      OT      -0.834000       15.9994           0
     37307 WT2      8550     TIP3     H1       HT       0.417000        1.0080           0
     37308 WT2      8550     TIP3     H2       HT       0.417000        1.0080           0
     37309 WT2      8551     TIP3     OH2      OT      -0.834000       15.9994           0
     37310 WT2      8551     TIP3     H1       HT       0.417000        1.0080           0
     37311 WT2      8551     TIP3     H2       HT       0.417000        1.0080           0
     37312 WT2      8553     TIP3     OH2      OT      -0.834000       15.9994           0
     37313 WT2      8553     TIP3     H1       HT       0.417000        1.0080           0
     37314 WT2      8553     TIP3     H2       HT       0.417000        1.0080           0
     37315 WT2      8554     TIP3     OH2      OT      -0.834000       15.9994           0
     37316 WT2      8554     TIP3     H1       HT       0.417000        1.0080           0
     37317 WT2      8554     TIP3     H2       HT       0.417000        1.0080           0
     37318 WT2      8556     TIP3     OH2      OT      -0.834000       15.9994           0
     37319 WT2      8556     TIP3     H1       HT       0.417000        1.0080           0
     37320 WT2      8556     TIP3     H2       HT       0.417000        1.0080           0
     37321 WT2      8558     TIP3     OH2      OT      -0.834000       15.9994           0
     37322 WT2      8558     TIP3     H1       HT       0.417000        1.0080           0
     37323 WT2      8558     TIP3     H2       HT       0.417000        1.0080           0
     37324 WT2      8571     TIP3     OH2      OT      -0.834000       15.9994           0
     37325 WT2      8571     TIP3     H1       HT       0.417000        1.0080           0
     37326 WT2      8571     TIP3     H2       HT       0.417000        1.0080           0
     37327 WT2      8572     TIP3     OH2      OT      -0.834000       15.9994           0
     37328 WT2      8572     TIP3     H1       HT       0.417000        1.0080           0
     37329 WT2      8572     TIP3     H2       HT       0.417000        1.0080           0
     37330 WT2      8573     TIP3     OH2      OT      -0.834000       15.9994           0
     37331 WT2      8573     TIP3     H1       HT       0.417000        1.0080           0
     37332 WT2      8573     TIP3     H2       HT       0.417000        1.0080           0
     37333 WT2      8574     TIP3     OH2      OT      -0.834000       15.9994           0
     37334 WT2      8574     TIP3     H1       HT       0.417000        1.0080           0
     37335 WT2      8574     TIP3     H2       HT       0.417000        1.0080           0
     37336 WT2      8576     TIP3     OH2      OT      -0.834000       15.9994           0
     37337 WT2      8576     TIP3     H1       HT       0.417000        1.0080           0
     37338 WT2      8576     TIP3     H2       HT       0.417000        1.0080           0
     37339 WT2      8589     TIP3     OH2      OT      -0.834000       15.9994           0
     37340 WT2      8589     TIP3     H1       HT       0.417000        1.0080           0
     37341 WT2      8589     TIP3     H2       HT       0.417000        1.0080           0
     37342 WT2      8590     TIP3     OH2      OT      -0.834000       15.9994           0
     37343 WT2      8590     TIP3     H1       HT       0.417000        1.0080           0
     37344 WT2      8590     TIP3     H2       HT       0.417000        1.0080           0
     37345 WT2      8591     TIP3     OH2      OT      -0.834000       15.9994           0
     37346 WT2      8591     TIP3     H1       HT       0.417000        1.0080           0
     37347 WT2      8591     TIP3     H2       HT       0.417000        1.0080           0
     37348 WT2      8592     TIP3     OH2      OT      -0.834000       15.9994           0
     37349 WT2      8592     TIP3     H1       HT       0.417000        1.0080           0
     37350 WT2      8592     TIP3     H2       HT       0.417000        1.0080           0
     37351 WT2      8593     TIP3     OH2      OT      -0.834000       15.9994           0
     37352 WT2      8593     TIP3     H1       HT       0.417000        1.0080           0
     37353 WT2      8593     TIP3     H2       HT       0.417000        1.0080           0
     37354 WT2      8594     TIP3     OH2      OT      -0.834000       15.9994           0
     37355 WT2      8594     TIP3     H1       HT       0.417000        1.0080           0
     37356 WT2      8594     TIP3     H2       HT       0.417000        1.0080           0
     37357 WT2      8596     TIP3     OH2      OT      -0.834000       15.9994           0
     37358 WT2      8596     TIP3     H1       HT       0.417000        1.0080           0
     37359 WT2      8596     TIP3     H2       HT       0.417000        1.0080           0
     37360 WT2      8597     TIP3     OH2      OT      -0.834000       15.9994           0
     37361 WT2      8597     TIP3     H1       HT       0.417000        1.0080           0
     37362 WT2      8597     TIP3     H2       HT       0.417000        1.0080           0
     37363 WT2      8611     TIP3     OH2      OT      -0.834000       15.9994           0
     37364 WT2      8611     TIP3     H1       HT       0.417000        1.0080           0
     37365 WT2      8611     TIP3     H2       HT       0.417000        1.0080           0
     37366 WT2      8613     TIP3     OH2      OT      -0.834000       15.9994           0
     37367 WT2      8613     TIP3     H1       HT       0.417000        1.0080           0
     37368 WT2      8613     TIP3     H2       HT       0.417000        1.0080           0
     37369 WT2      8615     TIP3     OH2      OT      -0.834000       15.9994           0
     37370 WT2      8615     TIP3     H1       HT       0.417000        1.0080           0
     37371 WT2      8615     TIP3     H2       HT       0.417000        1.0080           0
     37372 WT2      8616     TIP3     OH2      OT      -0.834000       15.9994           0
     37373 WT2      8616     TIP3     H1       HT       0.417000        1.0080           0
     37374 WT2      8616     TIP3     H2       HT       0.417000        1.0080           0
     37375 WT2      8617     TIP3     OH2      OT      -0.834000       15.9994           0
     37376 WT2      8617     TIP3     H1       HT       0.417000        1.0080           0
     37377 WT2      8617     TIP3     H2       HT       0.417000        1.0080           0
     37378 WT2      8618     TIP3     OH2      OT      -0.834000       15.9994           0
     37379 WT2      8618     TIP3     H1       HT       0.417000        1.0080           0
     37380 WT2      8618     TIP3     H2       HT       0.417000        1.0080           0
     37381 WT2      8619     TIP3     OH2      OT      -0.834000       15.9994           0
     37382 WT2      8619     TIP3     H1       HT       0.417000        1.0080           0
     37383 WT2      8619     TIP3     H2       HT       0.417000        1.0080           0
     37384 WT2      8631     TIP3     OH2      OT      -0.834000       15.9994           0
     37385 WT2      8631     TIP3     H1       HT       0.417000        1.0080           0
     37386 WT2      8631     TIP3     H2       HT       0.417000        1.0080           0
     37387 WT2      8632     TIP3     OH2      OT      -0.834000       15.9994           0
     37388 WT2      8632     TIP3     H1       HT       0.417000        1.0080           0
     37389 WT2      8632     TIP3     H2       HT       0.417000        1.0080           0
     37390 WT2      8633     TIP3     OH2      OT      -0.834000       15.9994           0
     37391 WT2      8633     TIP3     H1       HT       0.417000        1.0080           0
     37392 WT2      8633     TIP3     H2       HT       0.417000        1.0080           0
     37393 WT2      8634     TIP3     OH2      OT      -0.834000       15.9994           0
     37394 WT2      8634     TIP3     H1       HT       0.417000        1.0080           0
     37395 WT2      8634     TIP3     H2       HT       0.417000        1.0080           0
     37396 WT2      8636     TIP3     OH2      OT      -0.834000       15.9994           0
     37397 WT2      8636     TIP3     H1       HT       0.417000        1.0080           0
     37398 WT2      8636     TIP3     H2       HT       0.417000        1.0080           0
     37399 WT2      8638     TIP3     OH2      OT      -0.834000       15.9994           0
     37400 WT2      8638     TIP3     H1       HT       0.417000        1.0080           0
     37401 WT2      8638     TIP3     H2       HT       0.417000        1.0080           0
     37402 WT2      8640     TIP3     OH2      OT      -0.834000       15.9994           0
     37403 WT2      8640     TIP3     H1       HT       0.417000        1.0080           0
     37404 WT2      8640     TIP3     H2       HT       0.417000        1.0080           0
     37405 WT2      8653     TIP3     OH2      OT      -0.834000       15.9994           0
     37406 WT2      8653     TIP3     H1       HT       0.417000        1.0080           0
     37407 WT2      8653     TIP3     H2       HT       0.417000        1.0080           0
     37408 WT2      8654     TIP3     OH2      OT      -0.834000       15.9994           0
     37409 WT2      8654     TIP3     H1       HT       0.417000        1.0080           0
     37410 WT2      8654     TIP3     H2       HT       0.417000        1.0080           0
     37411 WT2      8655     TIP3     OH2      OT      -0.834000       15.9994           0
     37412 WT2      8655     TIP3     H1       HT       0.417000        1.0080           0
     37413 WT2      8655     TIP3     H2       HT       0.417000        1.0080           0
     37414 WT2      8656     TIP3     OH2      OT      -0.834000       15.9994           0
     37415 WT2      8656     TIP3     H1       HT       0.417000        1.0080           0
     37416 WT2      8656     TIP3     H2       HT       0.417000        1.0080           0
     37417 WT2      8657     TIP3     OH2      OT      -0.834000       15.9994           0
     37418 WT2      8657     TIP3     H1       HT       0.417000        1.0080           0
     37419 WT2      8657     TIP3     H2       HT       0.417000        1.0080           0
     37420 WT2      8659     TIP3     OH2      OT      -0.834000       15.9994           0
     37421 WT2      8659     TIP3     H1       HT       0.417000        1.0080           0
     37422 WT2      8659     TIP3     H2       HT       0.417000        1.0080           0
     37423 WT2      8660     TIP3     OH2      OT      -0.834000       15.9994           0
     37424 WT2      8660     TIP3     H1       HT       0.417000        1.0080           0
     37425 WT2      8660     TIP3     H2       HT       0.417000        1.0080           0
     37426 WT2      8662     TIP3     OH2      OT      -0.834000       15.9994           0
     37427 WT2      8662     TIP3     H1       HT       0.417000        1.0080           0
     37428 WT2      8662     TIP3     H2       HT       0.417000        1.0080           0
     37429 WT2      8675     TIP3     OH2      OT      -0.834000       15.9994           0
     37430 WT2      8675     TIP3     H1       HT       0.417000        1.0080           0
     37431 WT2      8675     TIP3     H2       HT       0.417000        1.0080           0
     37432 WT2      8676     TIP3     OH2      OT      -0.834000       15.9994           0
     37433 WT2      8676     TIP3     H1       HT       0.417000        1.0080           0
     37434 WT2      8676     TIP3     H2       HT       0.417000        1.0080           0
     37435 WT2      8677     TIP3     OH2      OT      -0.834000       15.9994           0
     37436 WT2      8677     TIP3     H1       HT       0.417000        1.0080           0
     37437 WT2      8677     TIP3     H2       HT       0.417000        1.0080           0
     37438 WT2      8678     TIP3     OH2      OT      -0.834000       15.9994           0
     37439 WT2      8678     TIP3     H1       HT       0.417000        1.0080           0
     37440 WT2      8678     TIP3     H2       HT       0.417000        1.0080           0
     37441 WT2      8679     TIP3     OH2      OT      -0.834000       15.9994           0
     37442 WT2      8679     TIP3     H1       HT       0.417000        1.0080           0
     37443 WT2      8679     TIP3     H2       HT       0.417000        1.0080           0
     37444 WT2      8681     TIP3     OH2      OT      -0.834000       15.9994           0
     37445 WT2      8681     TIP3     H1       HT       0.417000        1.0080           0
     37446 WT2      8681     TIP3     H2       HT       0.417000        1.0080           0
     37447 WT2      8682     TIP3     OH2      OT      -0.834000       15.9994           0
     37448 WT2      8682     TIP3     H1       HT       0.417000        1.0080           0
     37449 WT2      8682     TIP3     H2       HT       0.417000        1.0080           0
     37450 WT2      8683     TIP3     OH2      OT      -0.834000       15.9994           0
     37451 WT2      8683     TIP3     H1       HT       0.417000        1.0080           0
     37452 WT2      8683     TIP3     H2       HT       0.417000        1.0080           0
     37453 WT2      8684     TIP3     OH2      OT      -0.834000       15.9994           0
     37454 WT2      8684     TIP3     H1       HT       0.417000        1.0080           0
     37455 WT2      8684     TIP3     H2       HT       0.417000        1.0080           0
     37456 WT2      8691     TIP3     OH2      OT      -0.834000       15.9994           0
     37457 WT2      8691     TIP3     H1       HT       0.417000        1.0080           0
     37458 WT2      8691     TIP3     H2       HT       0.417000        1.0080           0
     37459 WT2      8694     TIP3     OH2      OT      -0.834000       15.9994           0
     37460 WT2      8694     TIP3     H1       HT       0.417000        1.0080           0
     37461 WT2      8694     TIP3     H2       HT       0.417000        1.0080           0
     37462 WT2      8695     TIP3     OH2      OT      -0.834000       15.9994           0
     37463 WT2      8695     TIP3     H1       HT       0.417000        1.0080           0
     37464 WT2      8695     TIP3     H2       HT       0.417000        1.0080           0
     37465 WT2      8696     TIP3     OH2      OT      -0.834000       15.9994           0
     37466 WT2      8696     TIP3     H1       HT       0.417000        1.0080           0
     37467 WT2      8696     TIP3     H2       HT       0.417000        1.0080           0
     37468 WT2      8697     TIP3     OH2      OT      -0.834000       15.9994           0
     37469 WT2      8697     TIP3     H1       HT       0.417000        1.0080           0
     37470 WT2      8697     TIP3     H2       HT       0.417000        1.0080           0
     37471 WT2      8699     TIP3     OH2      OT      -0.834000       15.9994           0
     37472 WT2      8699     TIP3     H1       HT       0.417000        1.0080           0
     37473 WT2      8699     TIP3     H2       HT       0.417000        1.0080           0
     37474 WT2      8700     TIP3     OH2      OT      -0.834000       15.9994           0
     37475 WT2      8700     TIP3     H1       HT       0.417000        1.0080           0
     37476 WT2      8700     TIP3     H2       HT       0.417000        1.0080           0
     37477 WT2      8702     TIP3     OH2      OT      -0.834000       15.9994           0
     37478 WT2      8702     TIP3     H1       HT       0.417000        1.0080           0
     37479 WT2      8702     TIP3     H2       HT       0.417000        1.0080           0
     37480 WT2      8704     TIP3     OH2      OT      -0.834000       15.9994           0
     37481 WT2      8704     TIP3     H1       HT       0.417000        1.0080           0
     37482 WT2      8704     TIP3     H2       HT       0.417000        1.0080           0
     37483 WT2      8715     TIP3     OH2      OT      -0.834000       15.9994           0
     37484 WT2      8715     TIP3     H1       HT       0.417000        1.0080           0
     37485 WT2      8715     TIP3     H2       HT       0.417000        1.0080           0
     37486 WT2      8716     TIP3     OH2      OT      -0.834000       15.9994           0
     37487 WT2      8716     TIP3     H1       HT       0.417000        1.0080           0
     37488 WT2      8716     TIP3     H2       HT       0.417000        1.0080           0
     37489 WT2      8717     TIP3     OH2      OT      -0.834000       15.9994           0
     37490 WT2      8717     TIP3     H1       HT       0.417000        1.0080           0
     37491 WT2      8717     TIP3     H2       HT       0.417000        1.0080           0
     37492 WT2      8718     TIP3     OH2      OT      -0.834000       15.9994           0
     37493 WT2      8718     TIP3     H1       HT       0.417000        1.0080           0
     37494 WT2      8718     TIP3     H2       HT       0.417000        1.0080           0
     37495 WT2      8720     TIP3     OH2      OT      -0.834000       15.9994           0
     37496 WT2      8720     TIP3     H1       HT       0.417000        1.0080           0
     37497 WT2      8720     TIP3     H2       HT       0.417000        1.0080           0
     37498 WT2      8721     TIP3     OH2      OT      -0.834000       15.9994           0
     37499 WT2      8721     TIP3     H1       HT       0.417000        1.0080           0
     37500 WT2      8721     TIP3     H2       HT       0.417000        1.0080           0
     37501 WT2      8722     TIP3     OH2      OT      -0.834000       15.9994           0
     37502 WT2      8722     TIP3     H1       HT       0.417000        1.0080           0
     37503 WT2      8722     TIP3     H2       HT       0.417000        1.0080           0
     37504 WT2      8737     TIP3     OH2      OT      -0.834000       15.9994           0
     37505 WT2      8737     TIP3     H1       HT       0.417000        1.0080           0
     37506 WT2      8737     TIP3     H2       HT       0.417000        1.0080           0
     37507 WT2      8738     TIP3     OH2      OT      -0.834000       15.9994           0
     37508 WT2      8738     TIP3     H1       HT       0.417000        1.0080           0
     37509 WT2      8738     TIP3     H2       HT       0.417000        1.0080           0
     37510 WT2      8739     TIP3     OH2      OT      -0.834000       15.9994           0
     37511 WT2      8739     TIP3     H1       HT       0.417000        1.0080           0
     37512 WT2      8739     TIP3     H2       HT       0.417000        1.0080           0
     37513 WT2      8740     TIP3     OH2      OT      -0.834000       15.9994           0
     37514 WT2      8740     TIP3     H1       HT       0.417000        1.0080           0
     37515 WT2      8740     TIP3     H2       HT       0.417000        1.0080           0
     37516 WT2      8741     TIP3     OH2      OT      -0.834000       15.9994           0
     37517 WT2      8741     TIP3     H1       HT       0.417000        1.0080           0
     37518 WT2      8741     TIP3     H2       HT       0.417000        1.0080           0
     37519 WT2      8742     TIP3     OH2      OT      -0.834000       15.9994           0
     37520 WT2      8742     TIP3     H1       HT       0.417000        1.0080           0
     37521 WT2      8742     TIP3     H2       HT       0.417000        1.0080           0
     37522 WT2      8743     TIP3     OH2      OT      -0.834000       15.9994           0
     37523 WT2      8743     TIP3     H1       HT       0.417000        1.0080           0
     37524 WT2      8743     TIP3     H2       HT       0.417000        1.0080           0
     37525 WT2      8744     TIP3     OH2      OT      -0.834000       15.9994           0
     37526 WT2      8744     TIP3     H1       HT       0.417000        1.0080           0
     37527 WT2      8744     TIP3     H2       HT       0.417000        1.0080           0
     37528 WT2      8746     TIP3     OH2      OT      -0.834000       15.9994           0
     37529 WT2      8746     TIP3     H1       HT       0.417000        1.0080           0
     37530 WT2      8746     TIP3     H2       HT       0.417000        1.0080           0
     37531 WT2      8754     TIP3     OH2      OT      -0.834000       15.9994           0
     37532 WT2      8754     TIP3     H1       HT       0.417000        1.0080           0
     37533 WT2      8754     TIP3     H2       HT       0.417000        1.0080           0
     37534 WT2      8757     TIP3     OH2      OT      -0.834000       15.9994           0
     37535 WT2      8757     TIP3     H1       HT       0.417000        1.0080           0
     37536 WT2      8757     TIP3     H2       HT       0.417000        1.0080           0
     37537 WT2      8759     TIP3     OH2      OT      -0.834000       15.9994           0
     37538 WT2      8759     TIP3     H1       HT       0.417000        1.0080           0
     37539 WT2      8759     TIP3     H2       HT       0.417000        1.0080           0
     37540 WT2      8760     TIP3     OH2      OT      -0.834000       15.9994           0
     37541 WT2      8760     TIP3     H1       HT       0.417000        1.0080           0
     37542 WT2      8760     TIP3     H2       HT       0.417000        1.0080           0
     37543 WT2      8761     TIP3     OH2      OT      -0.834000       15.9994           0
     37544 WT2      8761     TIP3     H1       HT       0.417000        1.0080           0
     37545 WT2      8761     TIP3     H2       HT       0.417000        1.0080           0
     37546 WT2      8763     TIP3     OH2      OT      -0.834000       15.9994           0
     37547 WT2      8763     TIP3     H1       HT       0.417000        1.0080           0
     37548 WT2      8763     TIP3     H2       HT       0.417000        1.0080           0
     37549 WT2      8764     TIP3     OH2      OT      -0.834000       15.9994           0
     37550 WT2      8764     TIP3     H1       HT       0.417000        1.0080           0
     37551 WT2      8764     TIP3     H2       HT       0.417000        1.0080           0
     37552 WT2      8766     TIP3     OH2      OT      -0.834000       15.9994           0
     37553 WT2      8766     TIP3     H1       HT       0.417000        1.0080           0
     37554 WT2      8766     TIP3     H2       HT       0.417000        1.0080           0
     37555 WT2      8767     TIP3     OH2      OT      -0.834000       15.9994           0
     37556 WT2      8767     TIP3     H1       HT       0.417000        1.0080           0
     37557 WT2      8767     TIP3     H2       HT       0.417000        1.0080           0
     37558 WT2      8777     TIP3     OH2      OT      -0.834000       15.9994           0
     37559 WT2      8777     TIP3     H1       HT       0.417000        1.0080           0
     37560 WT2      8777     TIP3     H2       HT       0.417000        1.0080           0
     37561 WT2      8778     TIP3     OH2      OT      -0.834000       15.9994           0
     37562 WT2      8778     TIP3     H1       HT       0.417000        1.0080           0
     37563 WT2      8778     TIP3     H2       HT       0.417000        1.0080           0
     37564 WT2      8779     TIP3     OH2      OT      -0.834000       15.9994           0
     37565 WT2      8779     TIP3     H1       HT       0.417000        1.0080           0
     37566 WT2      8779     TIP3     H2       HT       0.417000        1.0080           0
     37567 WT2      8780     TIP3     OH2      OT      -0.834000       15.9994           0
     37568 WT2      8780     TIP3     H1       HT       0.417000        1.0080           0
     37569 WT2      8780     TIP3     H2       HT       0.417000        1.0080           0
     37570 WT2      8783     TIP3     OH2      OT      -0.834000       15.9994           0
     37571 WT2      8783     TIP3     H1       HT       0.417000        1.0080           0
     37572 WT2      8783     TIP3     H2       HT       0.417000        1.0080           0
     37573 WT2      8785     TIP3     OH2      OT      -0.834000       15.9994           0
     37574 WT2      8785     TIP3     H1       HT       0.417000        1.0080           0
     37575 WT2      8785     TIP3     H2       HT       0.417000        1.0080           0
     37576 WT2      8786     TIP3     OH2      OT      -0.834000       15.9994           0
     37577 WT2      8786     TIP3     H1       HT       0.417000        1.0080           0
     37578 WT2      8786     TIP3     H2       HT       0.417000        1.0080           0
     37579 WT2      8787     TIP3     OH2      OT      -0.834000       15.9994           0
     37580 WT2      8787     TIP3     H1       HT       0.417000        1.0080           0
     37581 WT2      8787     TIP3     H2       HT       0.417000        1.0080           0
     37582 WT2      8788     TIP3     OH2      OT      -0.834000       15.9994           0
     37583 WT2      8788     TIP3     H1       HT       0.417000        1.0080           0
     37584 WT2      8788     TIP3     H2       HT       0.417000        1.0080           0
     37585 WT2      8790     TIP3     OH2      OT      -0.834000       15.9994           0
     37586 WT2      8790     TIP3     H1       HT       0.417000        1.0080           0
     37587 WT2      8790     TIP3     H2       HT       0.417000        1.0080           0
     37588 WT2      8797     TIP3     OH2      OT      -0.834000       15.9994           0
     37589 WT2      8797     TIP3     H1       HT       0.417000        1.0080           0
     37590 WT2      8797     TIP3     H2       HT       0.417000        1.0080           0
     37591 WT2      8800     TIP3     OH2      OT      -0.834000       15.9994           0
     37592 WT2      8800     TIP3     H1       HT       0.417000        1.0080           0
     37593 WT2      8800     TIP3     H2       HT       0.417000        1.0080           0
     37594 WT2      8801     TIP3     OH2      OT      -0.834000       15.9994           0
     37595 WT2      8801     TIP3     H1       HT       0.417000        1.0080           0
     37596 WT2      8801     TIP3     H2       HT       0.417000        1.0080           0
     37597 WT2      8802     TIP3     OH2      OT      -0.834000       15.9994           0
     37598 WT2      8802     TIP3     H1       HT       0.417000        1.0080           0
     37599 WT2      8802     TIP3     H2       HT       0.417000        1.0080           0
     37600 WT2      8803     TIP3     OH2      OT      -0.834000       15.9994           0
     37601 WT2      8803     TIP3     H1       HT       0.417000        1.0080           0
     37602 WT2      8803     TIP3     H2       HT       0.417000        1.0080           0
     37603 WT2      8804     TIP3     OH2      OT      -0.834000       15.9994           0
     37604 WT2      8804     TIP3     H1       HT       0.417000        1.0080           0
     37605 WT2      8804     TIP3     H2       HT       0.417000        1.0080           0
     37606 WT2      8806     TIP3     OH2      OT      -0.834000       15.9994           0
     37607 WT2      8806     TIP3     H1       HT       0.417000        1.0080           0
     37608 WT2      8806     TIP3     H2       HT       0.417000        1.0080           0
     37609 WT2      8808     TIP3     OH2      OT      -0.834000       15.9994           0
     37610 WT2      8808     TIP3     H1       HT       0.417000        1.0080           0
     37611 WT2      8808     TIP3     H2       HT       0.417000        1.0080           0
     37612 WT2      8809     TIP3     OH2      OT      -0.834000       15.9994           0
     37613 WT2      8809     TIP3     H1       HT       0.417000        1.0080           0
     37614 WT2      8809     TIP3     H2       HT       0.417000        1.0080           0
     37615 WT2      8811     TIP3     OH2      OT      -0.834000       15.9994           0
     37616 WT2      8811     TIP3     H1       HT       0.417000        1.0080           0
     37617 WT2      8811     TIP3     H2       HT       0.417000        1.0080           0
     37618 WT2      8819     TIP3     OH2      OT      -0.834000       15.9994           0
     37619 WT2      8819     TIP3     H1       HT       0.417000        1.0080           0
     37620 WT2      8819     TIP3     H2       HT       0.417000        1.0080           0
     37621 WT2      8820     TIP3     OH2      OT      -0.834000       15.9994           0
     37622 WT2      8820     TIP3     H1       HT       0.417000        1.0080           0
     37623 WT2      8820     TIP3     H2       HT       0.417000        1.0080           0
     37624 WT2      8822     TIP3     OH2      OT      -0.834000       15.9994           0
     37625 WT2      8822     TIP3     H1       HT       0.417000        1.0080           0
     37626 WT2      8822     TIP3     H2       HT       0.417000        1.0080           0
     37627 WT2      8823     TIP3     OH2      OT      -0.834000       15.9994           0
     37628 WT2      8823     TIP3     H1       HT       0.417000        1.0080           0
     37629 WT2      8823     TIP3     H2       HT       0.417000        1.0080           0
     37630 WT2      8825     TIP3     OH2      OT      -0.834000       15.9994           0
     37631 WT2      8825     TIP3     H1       HT       0.417000        1.0080           0
     37632 WT2      8825     TIP3     H2       HT       0.417000        1.0080           0
     37633 WT2      8827     TIP3     OH2      OT      -0.834000       15.9994           0
     37634 WT2      8827     TIP3     H1       HT       0.417000        1.0080           0
     37635 WT2      8827     TIP3     H2       HT       0.417000        1.0080           0
     37636 WT2      8829     TIP3     OH2      OT      -0.834000       15.9994           0
     37637 WT2      8829     TIP3     H1       HT       0.417000        1.0080           0
     37638 WT2      8829     TIP3     H2       HT       0.417000        1.0080           0
     37639 WT2      8830     TIP3     OH2      OT      -0.834000       15.9994           0
     37640 WT2      8830     TIP3     H1       HT       0.417000        1.0080           0
     37641 WT2      8830     TIP3     H2       HT       0.417000        1.0080           0
     37642 WT2      8842     TIP3     OH2      OT      -0.834000       15.9994           0
     37643 WT2      8842     TIP3     H1       HT       0.417000        1.0080           0
     37644 WT2      8842     TIP3     H2       HT       0.417000        1.0080           0
     37645 WT2      8843     TIP3     OH2      OT      -0.834000       15.9994           0
     37646 WT2      8843     TIP3     H1       HT       0.417000        1.0080           0
     37647 WT2      8843     TIP3     H2       HT       0.417000        1.0080           0
     37648 WT2      8844     TIP3     OH2      OT      -0.834000       15.9994           0
     37649 WT2      8844     TIP3     H1       HT       0.417000        1.0080           0
     37650 WT2      8844     TIP3     H2       HT       0.417000        1.0080           0
     37651 WT2      8845     TIP3     OH2      OT      -0.834000       15.9994           0
     37652 WT2      8845     TIP3     H1       HT       0.417000        1.0080           0
     37653 WT2      8845     TIP3     H2       HT       0.417000        1.0080           0
     37654 WT2      8846     TIP3     OH2      OT      -0.834000       15.9994           0
     37655 WT2      8846     TIP3     H1       HT       0.417000        1.0080           0
     37656 WT2      8846     TIP3     H2       HT       0.417000        1.0080           0
     37657 WT2      8847     TIP3     OH2      OT      -0.834000       15.9994           0
     37658 WT2      8847     TIP3     H1       HT       0.417000        1.0080           0
     37659 WT2      8847     TIP3     H2       HT       0.417000        1.0080           0
     37660 WT2      8849     TIP3     OH2      OT      -0.834000       15.9994           0
     37661 WT2      8849     TIP3     H1       HT       0.417000        1.0080           0
     37662 WT2      8849     TIP3     H2       HT       0.417000        1.0080           0
     37663 WT2      8850     TIP3     OH2      OT      -0.834000       15.9994           0
     37664 WT2      8850     TIP3     H1       HT       0.417000        1.0080           0
     37665 WT2      8850     TIP3     H2       HT       0.417000        1.0080           0
     37666 WT2      8851     TIP3     OH2      OT      -0.834000       15.9994           0
     37667 WT2      8851     TIP3     H1       HT       0.417000        1.0080           0
     37668 WT2      8851     TIP3     H2       HT       0.417000        1.0080           0
     37669 WT2      8853     TIP3     OH2      OT      -0.834000       15.9994           0
     37670 WT2      8853     TIP3     H1       HT       0.417000        1.0080           0
     37671 WT2      8853     TIP3     H2       HT       0.417000        1.0080           0
     37672 WT2      8863     TIP3     OH2      OT      -0.834000       15.9994           0
     37673 WT2      8863     TIP3     H1       HT       0.417000        1.0080           0
     37674 WT2      8863     TIP3     H2       HT       0.417000        1.0080           0
     37675 WT2      8865     TIP3     OH2      OT      -0.834000       15.9994           0
     37676 WT2      8865     TIP3     H1       HT       0.417000        1.0080           0
     37677 WT2      8865     TIP3     H2       HT       0.417000        1.0080           0
     37678 WT2      8866     TIP3     OH2      OT      -0.834000       15.9994           0
     37679 WT2      8866     TIP3     H1       HT       0.417000        1.0080           0
     37680 WT2      8866     TIP3     H2       HT       0.417000        1.0080           0
     37681 WT2      8867     TIP3     OH2      OT      -0.834000       15.9994           0
     37682 WT2      8867     TIP3     H1       HT       0.417000        1.0080           0
     37683 WT2      8867     TIP3     H2       HT       0.417000        1.0080           0
     37684 WT2      8868     TIP3     OH2      OT      -0.834000       15.9994           0
     37685 WT2      8868     TIP3     H1       HT       0.417000        1.0080           0
     37686 WT2      8868     TIP3     H2       HT       0.417000        1.0080           0
     37687 WT2      8869     TIP3     OH2      OT      -0.834000       15.9994           0
     37688 WT2      8869     TIP3     H1       HT       0.417000        1.0080           0
     37689 WT2      8869     TIP3     H2       HT       0.417000        1.0080           0
     37690 WT2      8883     TIP3     OH2      OT      -0.834000       15.9994           0
     37691 WT2      8883     TIP3     H1       HT       0.417000        1.0080           0
     37692 WT2      8883     TIP3     H2       HT       0.417000        1.0080           0
     37693 WT2      8884     TIP3     OH2      OT      -0.834000       15.9994           0
     37694 WT2      8884     TIP3     H1       HT       0.417000        1.0080           0
     37695 WT2      8884     TIP3     H2       HT       0.417000        1.0080           0
     37696 WT2      8885     TIP3     OH2      OT      -0.834000       15.9994           0
     37697 WT2      8885     TIP3     H1       HT       0.417000        1.0080           0
     37698 WT2      8885     TIP3     H2       HT       0.417000        1.0080           0
     37699 WT2      8886     TIP3     OH2      OT      -0.834000       15.9994           0
     37700 WT2      8886     TIP3     H1       HT       0.417000        1.0080           0
     37701 WT2      8886     TIP3     H2       HT       0.417000        1.0080           0
     37702 WT2      8887     TIP3     OH2      OT      -0.834000       15.9994           0
     37703 WT2      8887     TIP3     H1       HT       0.417000        1.0080           0
     37704 WT2      8887     TIP3     H2       HT       0.417000        1.0080           0
     37705 WT2      8889     TIP3     OH2      OT      -0.834000       15.9994           0
     37706 WT2      8889     TIP3     H1       HT       0.417000        1.0080           0
     37707 WT2      8889     TIP3     H2       HT       0.417000        1.0080           0
     37708 WT2      8890     TIP3     OH2      OT      -0.834000       15.9994           0
     37709 WT2      8890     TIP3     H1       HT       0.417000        1.0080           0
     37710 WT2      8890     TIP3     H2       HT       0.417000        1.0080           0
     37711 WT2      8891     TIP3     OH2      OT      -0.834000       15.9994           0
     37712 WT2      8891     TIP3     H1       HT       0.417000        1.0080           0
     37713 WT2      8891     TIP3     H2       HT       0.417000        1.0080           0
     37714 WT2      8895     TIP3     OH2      OT      -0.834000       15.9994           0
     37715 WT2      8895     TIP3     H1       HT       0.417000        1.0080           0
     37716 WT2      8895     TIP3     H2       HT       0.417000        1.0080           0
     37717 WT2      8901     TIP3     OH2      OT      -0.834000       15.9994           0
     37718 WT2      8901     TIP3     H1       HT       0.417000        1.0080           0
     37719 WT2      8901     TIP3     H2       HT       0.417000        1.0080           0
     37720 WT2      8903     TIP3     OH2      OT      -0.834000       15.9994           0
     37721 WT2      8903     TIP3     H1       HT       0.417000        1.0080           0
     37722 WT2      8903     TIP3     H2       HT       0.417000        1.0080           0
     37723 WT2      8905     TIP3     OH2      OT      -0.834000       15.9994           0
     37724 WT2      8905     TIP3     H1       HT       0.417000        1.0080           0
     37725 WT2      8905     TIP3     H2       HT       0.417000        1.0080           0
     37726 WT2      8906     TIP3     OH2      OT      -0.834000       15.9994           0
     37727 WT2      8906     TIP3     H1       HT       0.417000        1.0080           0
     37728 WT2      8906     TIP3     H2       HT       0.417000        1.0080           0
     37729 WT2      8907     TIP3     OH2      OT      -0.834000       15.9994           0
     37730 WT2      8907     TIP3     H1       HT       0.417000        1.0080           0
     37731 WT2      8907     TIP3     H2       HT       0.417000        1.0080           0
     37732 WT2      8908     TIP3     OH2      OT      -0.834000       15.9994           0
     37733 WT2      8908     TIP3     H1       HT       0.417000        1.0080           0
     37734 WT2      8908     TIP3     H2       HT       0.417000        1.0080           0
     37735 WT2      8909     TIP3     OH2      OT      -0.834000       15.9994           0
     37736 WT2      8909     TIP3     H1       HT       0.417000        1.0080           0
     37737 WT2      8909     TIP3     H2       HT       0.417000        1.0080           0
     37738 WT2      8911     TIP3     OH2      OT      -0.834000       15.9994           0
     37739 WT2      8911     TIP3     H1       HT       0.417000        1.0080           0
     37740 WT2      8911     TIP3     H2       HT       0.417000        1.0080           0
     37741 WT2      8912     TIP3     OH2      OT      -0.834000       15.9994           0
     37742 WT2      8912     TIP3     H1       HT       0.417000        1.0080           0
     37743 WT2      8912     TIP3     H2       HT       0.417000        1.0080           0
     37744 WT2      8913     TIP3     OH2      OT      -0.834000       15.9994           0
     37745 WT2      8913     TIP3     H1       HT       0.417000        1.0080           0
     37746 WT2      8913     TIP3     H2       HT       0.417000        1.0080           0
     37747 WT2      8914     TIP3     OH2      OT      -0.834000       15.9994           0
     37748 WT2      8914     TIP3     H1       HT       0.417000        1.0080           0
     37749 WT2      8914     TIP3     H2       HT       0.417000        1.0080           0
     37750 WT2      8925     TIP3     OH2      OT      -0.834000       15.9994           0
     37751 WT2      8925     TIP3     H1       HT       0.417000        1.0080           0
     37752 WT2      8925     TIP3     H2       HT       0.417000        1.0080           0
     37753 WT2      8926     TIP3     OH2      OT      -0.834000       15.9994           0
     37754 WT2      8926     TIP3     H1       HT       0.417000        1.0080           0
     37755 WT2      8926     TIP3     H2       HT       0.417000        1.0080           0
     37756 WT2      8927     TIP3     OH2      OT      -0.834000       15.9994           0
     37757 WT2      8927     TIP3     H1       HT       0.417000        1.0080           0
     37758 WT2      8927     TIP3     H2       HT       0.417000        1.0080           0
     37759 WT2      8929     TIP3     OH2      OT      -0.834000       15.9994           0
     37760 WT2      8929     TIP3     H1       HT       0.417000        1.0080           0
     37761 WT2      8929     TIP3     H2       HT       0.417000        1.0080           0
     37762 WT2      8930     TIP3     OH2      OT      -0.834000       15.9994           0
     37763 WT2      8930     TIP3     H1       HT       0.417000        1.0080           0
     37764 WT2      8930     TIP3     H2       HT       0.417000        1.0080           0
     37765 WT2      8931     TIP3     OH2      OT      -0.834000       15.9994           0
     37766 WT2      8931     TIP3     H1       HT       0.417000        1.0080           0
     37767 WT2      8931     TIP3     H2       HT       0.417000        1.0080           0
     37768 WT2      8932     TIP3     OH2      OT      -0.834000       15.9994           0
     37769 WT2      8932     TIP3     H1       HT       0.417000        1.0080           0
     37770 WT2      8932     TIP3     H2       HT       0.417000        1.0080           0
     37771 WT2      8935     TIP3     OH2      OT      -0.834000       15.9994           0
     37772 WT2      8935     TIP3     H1       HT       0.417000        1.0080           0
     37773 WT2      8935     TIP3     H2       HT       0.417000        1.0080           0
     37774 WT2      8944     TIP3     OH2      OT      -0.834000       15.9994           0
     37775 WT2      8944     TIP3     H1       HT       0.417000        1.0080           0
     37776 WT2      8944     TIP3     H2       HT       0.417000        1.0080           0
     37777 WT2      8949     TIP3     OH2      OT      -0.834000       15.9994           0
     37778 WT2      8949     TIP3     H1       HT       0.417000        1.0080           0
     37779 WT2      8949     TIP3     H2       HT       0.417000        1.0080           0
     37780 WT2      8950     TIP3     OH2      OT      -0.834000       15.9994           0
     37781 WT2      8950     TIP3     H1       HT       0.417000        1.0080           0
     37782 WT2      8950     TIP3     H2       HT       0.417000        1.0080           0
     37783 WT2      8951     TIP3     OH2      OT      -0.834000       15.9994           0
     37784 WT2      8951     TIP3     H1       HT       0.417000        1.0080           0
     37785 WT2      8951     TIP3     H2       HT       0.417000        1.0080           0
     37786 WT2      8952     TIP3     OH2      OT      -0.834000       15.9994           0
     37787 WT2      8952     TIP3     H1       HT       0.417000        1.0080           0
     37788 WT2      8952     TIP3     H2       HT       0.417000        1.0080           0
     37789 WT2      8953     TIP3     OH2      OT      -0.834000       15.9994           0
     37790 WT2      8953     TIP3     H1       HT       0.417000        1.0080           0
     37791 WT2      8953     TIP3     H2       HT       0.417000        1.0080           0
     37792 WT2      8954     TIP3     OH2      OT      -0.834000       15.9994           0
     37793 WT2      8954     TIP3     H1       HT       0.417000        1.0080           0
     37794 WT2      8954     TIP3     H2       HT       0.417000        1.0080           0
     37795 WT2      8956     TIP3     OH2      OT      -0.834000       15.9994           0
     37796 WT2      8956     TIP3     H1       HT       0.417000        1.0080           0
     37797 WT2      8956     TIP3     H2       HT       0.417000        1.0080           0
     37798 WT2      8967     TIP3     OH2      OT      -0.834000       15.9994           0
     37799 WT2      8967     TIP3     H1       HT       0.417000        1.0080           0
     37800 WT2      8967     TIP3     H2       HT       0.417000        1.0080           0
     37801 WT2      8969     TIP3     OH2      OT      -0.834000       15.9994           0
     37802 WT2      8969     TIP3     H1       HT       0.417000        1.0080           0
     37803 WT2      8969     TIP3     H2       HT       0.417000        1.0080           0
     37804 WT2      8970     TIP3     OH2      OT      -0.834000       15.9994           0
     37805 WT2      8970     TIP3     H1       HT       0.417000        1.0080           0
     37806 WT2      8970     TIP3     H2       HT       0.417000        1.0080           0
     37807 WT2      8971     TIP3     OH2      OT      -0.834000       15.9994           0
     37808 WT2      8971     TIP3     H1       HT       0.417000        1.0080           0
     37809 WT2      8971     TIP3     H2       HT       0.417000        1.0080           0
     37810 WT2      8972     TIP3     OH2      OT      -0.834000       15.9994           0
     37811 WT2      8972     TIP3     H1       HT       0.417000        1.0080           0
     37812 WT2      8972     TIP3     H2       HT       0.417000        1.0080           0
     37813 WT2      8973     TIP3     OH2      OT      -0.834000       15.9994           0
     37814 WT2      8973     TIP3     H1       HT       0.417000        1.0080           0
     37815 WT2      8973     TIP3     H2       HT       0.417000        1.0080           0
     37816 WT2      8974     TIP3     OH2      OT      -0.834000       15.9994           0
     37817 WT2      8974     TIP3     H1       HT       0.417000        1.0080           0
     37818 WT2      8974     TIP3     H2       HT       0.417000        1.0080           0
     37819 WT2      8975     TIP3     OH2      OT      -0.834000       15.9994           0
     37820 WT2      8975     TIP3     H1       HT       0.417000        1.0080           0
     37821 WT2      8975     TIP3     H2       HT       0.417000        1.0080           0
     37822 WT2      8976     TIP3     OH2      OT      -0.834000       15.9994           0
     37823 WT2      8976     TIP3     H1       HT       0.417000        1.0080           0
     37824 WT2      8976     TIP3     H2       HT       0.417000        1.0080           0
     37825 WT2      8977     TIP3     OH2      OT      -0.834000       15.9994           0
     37826 WT2      8977     TIP3     H1       HT       0.417000        1.0080           0
     37827 WT2      8977     TIP3     H2       HT       0.417000        1.0080           0
     37828 WT2      8978     TIP3     OH2      OT      -0.834000       15.9994           0
     37829 WT2      8978     TIP3     H1       HT       0.417000        1.0080           0
     37830 WT2      8978     TIP3     H2       HT       0.417000        1.0080           0
     37831 WT2      8988     TIP3     OH2      OT      -0.834000       15.9994           0
     37832 WT2      8988     TIP3     H1       HT       0.417000        1.0080           0
     37833 WT2      8988     TIP3     H2       HT       0.417000        1.0080           0
     37834 WT2      8990     TIP3     OH2      OT      -0.834000       15.9994           0
     37835 WT2      8990     TIP3     H1       HT       0.417000        1.0080           0
     37836 WT2      8990     TIP3     H2       HT       0.417000        1.0080           0
     37837 WT2      8991     TIP3     OH2      OT      -0.834000       15.9994           0
     37838 WT2      8991     TIP3     H1       HT       0.417000        1.0080           0
     37839 WT2      8991     TIP3     H2       HT       0.417000        1.0080           0
     37840 WT2      8992     TIP3     OH2      OT      -0.834000       15.9994           0
     37841 WT2      8992     TIP3     H1       HT       0.417000        1.0080           0
     37842 WT2      8992     TIP3     H2       HT       0.417000        1.0080           0
     37843 WT2      8993     TIP3     OH2      OT      -0.834000       15.9994           0
     37844 WT2      8993     TIP3     H1       HT       0.417000        1.0080           0
     37845 WT2      8993     TIP3     H2       HT       0.417000        1.0080           0
     37846 WT2      8995     TIP3     OH2      OT      -0.834000       15.9994           0
     37847 WT2      8995     TIP3     H1       HT       0.417000        1.0080           0
     37848 WT2      8995     TIP3     H2       HT       0.417000        1.0080           0
     37849 WT2      8996     TIP3     OH2      OT      -0.834000       15.9994           0
     37850 WT2      8996     TIP3     H1       HT       0.417000        1.0080           0
     37851 WT2      8996     TIP3     H2       HT       0.417000        1.0080           0
     37852 WT2      8997     TIP3     OH2      OT      -0.834000       15.9994           0
     37853 WT2      8997     TIP3     H1       HT       0.417000        1.0080           0
     37854 WT2      8997     TIP3     H2       HT       0.417000        1.0080           0
     37855 WT2      8999     TIP3     OH2      OT      -0.834000       15.9994           0
     37856 WT2      8999     TIP3     H1       HT       0.417000        1.0080           0
     37857 WT2      8999     TIP3     H2       HT       0.417000        1.0080           0
     37858 WT2      9008     TIP3     OH2      OT      -0.834000       15.9994           0
     37859 WT2      9008     TIP3     H1       HT       0.417000        1.0080           0
     37860 WT2      9008     TIP3     H2       HT       0.417000        1.0080           0
     37861 WT2      9009     TIP3     OH2      OT      -0.834000       15.9994           0
     37862 WT2      9009     TIP3     H1       HT       0.417000        1.0080           0
     37863 WT2      9009     TIP3     H2       HT       0.417000        1.0080           0
     37864 WT2      9013     TIP3     OH2      OT      -0.834000       15.9994           0
     37865 WT2      9013     TIP3     H1       HT       0.417000        1.0080           0
     37866 WT2      9013     TIP3     H2       HT       0.417000        1.0080           0
     37867 WT2      9014     TIP3     OH2      OT      -0.834000       15.9994           0
     37868 WT2      9014     TIP3     H1       HT       0.417000        1.0080           0
     37869 WT2      9014     TIP3     H2       HT       0.417000        1.0080           0
     37870 WT2      9015     TIP3     OH2      OT      -0.834000       15.9994           0
     37871 WT2      9015     TIP3     H1       HT       0.417000        1.0080           0
     37872 WT2      9015     TIP3     H2       HT       0.417000        1.0080           0
     37873 WT2      9016     TIP3     OH2      OT      -0.834000       15.9994           0
     37874 WT2      9016     TIP3     H1       HT       0.417000        1.0080           0
     37875 WT2      9016     TIP3     H2       HT       0.417000        1.0080           0
     37876 WT2      9019     TIP3     OH2      OT      -0.834000       15.9994           0
     37877 WT2      9019     TIP3     H1       HT       0.417000        1.0080           0
     37878 WT2      9019     TIP3     H2       HT       0.417000        1.0080           0
     37879 WT2      9024     TIP3     OH2      OT      -0.834000       15.9994           0
     37880 WT2      9024     TIP3     H1       HT       0.417000        1.0080           0
     37881 WT2      9024     TIP3     H2       HT       0.417000        1.0080           0
     37882 WT2      9031     TIP3     OH2      OT      -0.834000       15.9994           0
     37883 WT2      9031     TIP3     H1       HT       0.417000        1.0080           0
     37884 WT2      9031     TIP3     H2       HT       0.417000        1.0080           0
     37885 WT2      9033     TIP3     OH2      OT      -0.834000       15.9994           0
     37886 WT2      9033     TIP3     H1       HT       0.417000        1.0080           0
     37887 WT2      9033     TIP3     H2       HT       0.417000        1.0080           0
     37888 WT2      9034     TIP3     OH2      OT      -0.834000       15.9994           0
     37889 WT2      9034     TIP3     H1       HT       0.417000        1.0080           0
     37890 WT2      9034     TIP3     H2       HT       0.417000        1.0080           0
     37891 WT2      9035     TIP3     OH2      OT      -0.834000       15.9994           0
     37892 WT2      9035     TIP3     H1       HT       0.417000        1.0080           0
     37893 WT2      9035     TIP3     H2       HT       0.417000        1.0080           0
     37894 WT2      9036     TIP3     OH2      OT      -0.834000       15.9994           0
     37895 WT2      9036     TIP3     H1       HT       0.417000        1.0080           0
     37896 WT2      9036     TIP3     H2       HT       0.417000        1.0080           0
     37897 WT2      9039     TIP3     OH2      OT      -0.834000       15.9994           0
     37898 WT2      9039     TIP3     H1       HT       0.417000        1.0080           0
     37899 WT2      9039     TIP3     H2       HT       0.417000        1.0080           0
     37900 WT2      9041     TIP3     OH2      OT      -0.834000       15.9994           0
     37901 WT2      9041     TIP3     H1       HT       0.417000        1.0080           0
     37902 WT2      9041     TIP3     H2       HT       0.417000        1.0080           0
     37903 WT2      9047     TIP3     OH2      OT      -0.834000       15.9994           0
     37904 WT2      9047     TIP3     H1       HT       0.417000        1.0080           0
     37905 WT2      9047     TIP3     H2       HT       0.417000        1.0080           0
     37906 WT2      9051     TIP3     OH2      OT      -0.834000       15.9994           0
     37907 WT2      9051     TIP3     H1       HT       0.417000        1.0080           0
     37908 WT2      9051     TIP3     H2       HT       0.417000        1.0080           0
     37909 WT2      9052     TIP3     OH2      OT      -0.834000       15.9994           0
     37910 WT2      9052     TIP3     H1       HT       0.417000        1.0080           0
     37911 WT2      9052     TIP3     H2       HT       0.417000        1.0080           0
     37912 WT2      9054     TIP3     OH2      OT      -0.834000       15.9994           0
     37913 WT2      9054     TIP3     H1       HT       0.417000        1.0080           0
     37914 WT2      9054     TIP3     H2       HT       0.417000        1.0080           0
     37915 WT2      9055     TIP3     OH2      OT      -0.834000       15.9994           0
     37916 WT2      9055     TIP3     H1       HT       0.417000        1.0080           0
     37917 WT2      9055     TIP3     H2       HT       0.417000        1.0080           0
     37918 WT2      9058     TIP3     OH2      OT      -0.834000       15.9994           0
     37919 WT2      9058     TIP3     H1       HT       0.417000        1.0080           0
     37920 WT2      9058     TIP3     H2       HT       0.417000        1.0080           0
     37921 WT2      9060     TIP3     OH2      OT      -0.834000       15.9994           0
     37922 WT2      9060     TIP3     H1       HT       0.417000        1.0080           0
     37923 WT2      9060     TIP3     H2       HT       0.417000        1.0080           0
     37924 WT2      9072     TIP3     OH2      OT      -0.834000       15.9994           0
     37925 WT2      9072     TIP3     H1       HT       0.417000        1.0080           0
     37926 WT2      9072     TIP3     H2       HT       0.417000        1.0080           0
     37927 WT2      9073     TIP3     OH2      OT      -0.834000       15.9994           0
     37928 WT2      9073     TIP3     H1       HT       0.417000        1.0080           0
     37929 WT2      9073     TIP3     H2       HT       0.417000        1.0080           0
     37930 WT2      9075     TIP3     OH2      OT      -0.834000       15.9994           0
     37931 WT2      9075     TIP3     H1       HT       0.417000        1.0080           0
     37932 WT2      9075     TIP3     H2       HT       0.417000        1.0080           0
     37933 WT2      9078     TIP3     OH2      OT      -0.834000       15.9994           0
     37934 WT2      9078     TIP3     H1       HT       0.417000        1.0080           0
     37935 WT2      9078     TIP3     H2       HT       0.417000        1.0080           0
     37936 WT2      9079     TIP3     OH2      OT      -0.834000       15.9994           0
     37937 WT2      9079     TIP3     H1       HT       0.417000        1.0080           0
     37938 WT2      9079     TIP3     H2       HT       0.417000        1.0080           0
     37939 WT2      9080     TIP3     OH2      OT      -0.834000       15.9994           0
     37940 WT2      9080     TIP3     H1       HT       0.417000        1.0080           0
     37941 WT2      9080     TIP3     H2       HT       0.417000        1.0080           0
     37942 WT2      9082     TIP3     OH2      OT      -0.834000       15.9994           0
     37943 WT2      9082     TIP3     H1       HT       0.417000        1.0080           0
     37944 WT2      9082     TIP3     H2       HT       0.417000        1.0080           0
     37945 WT2      9092     TIP3     OH2      OT      -0.834000       15.9994           0
     37946 WT2      9092     TIP3     H1       HT       0.417000        1.0080           0
     37947 WT2      9092     TIP3     H2       HT       0.417000        1.0080           0
     37948 WT2      9093     TIP3     OH2      OT      -0.834000       15.9994           0
     37949 WT2      9093     TIP3     H1       HT       0.417000        1.0080           0
     37950 WT2      9093     TIP3     H2       HT       0.417000        1.0080           0
     37951 WT2      9094     TIP3     OH2      OT      -0.834000       15.9994           0
     37952 WT2      9094     TIP3     H1       HT       0.417000        1.0080           0
     37953 WT2      9094     TIP3     H2       HT       0.417000        1.0080           0
     37954 WT2      9096     TIP3     OH2      OT      -0.834000       15.9994           0
     37955 WT2      9096     TIP3     H1       HT       0.417000        1.0080           0
     37956 WT2      9096     TIP3     H2       HT       0.417000        1.0080           0
     37957 WT2      9097     TIP3     OH2      OT      -0.834000       15.9994           0
     37958 WT2      9097     TIP3     H1       HT       0.417000        1.0080           0
     37959 WT2      9097     TIP3     H2       HT       0.417000        1.0080           0
     37960 WT2      9098     TIP3     OH2      OT      -0.834000       15.9994           0
     37961 WT2      9098     TIP3     H1       HT       0.417000        1.0080           0
     37962 WT2      9098     TIP3     H2       HT       0.417000        1.0080           0
     37963 WT2      9099     TIP3     OH2      OT      -0.834000       15.9994           0
     37964 WT2      9099     TIP3     H1       HT       0.417000        1.0080           0
     37965 WT2      9099     TIP3     H2       HT       0.417000        1.0080           0
     37966 WT2      9100     TIP3     OH2      OT      -0.834000       15.9994           0
     37967 WT2      9100     TIP3     H1       HT       0.417000        1.0080           0
     37968 WT2      9100     TIP3     H2       HT       0.417000        1.0080           0
     37969 WT2      9103     TIP3     OH2      OT      -0.834000       15.9994           0
     37970 WT2      9103     TIP3     H1       HT       0.417000        1.0080           0
     37971 WT2      9103     TIP3     H2       HT       0.417000        1.0080           0
     37972 WT2      9110     TIP3     OH2      OT      -0.834000       15.9994           0
     37973 WT2      9110     TIP3     H1       HT       0.417000        1.0080           0
     37974 WT2      9110     TIP3     H2       HT       0.417000        1.0080           0
     37975 WT2      9116     TIP3     OH2      OT      -0.834000       15.9994           0
     37976 WT2      9116     TIP3     H1       HT       0.417000        1.0080           0
     37977 WT2      9116     TIP3     H2       HT       0.417000        1.0080           0
     37978 WT2      9117     TIP3     OH2      OT      -0.834000       15.9994           0
     37979 WT2      9117     TIP3     H1       HT       0.417000        1.0080           0
     37980 WT2      9117     TIP3     H2       HT       0.417000        1.0080           0
     37981 WT2      9120     TIP3     OH2      OT      -0.834000       15.9994           0
     37982 WT2      9120     TIP3     H1       HT       0.417000        1.0080           0
     37983 WT2      9120     TIP3     H2       HT       0.417000        1.0080           0
     37984 WT2      9122     TIP3     OH2      OT      -0.834000       15.9994           0
     37985 WT2      9122     TIP3     H1       HT       0.417000        1.0080           0
     37986 WT2      9122     TIP3     H2       HT       0.417000        1.0080           0
     37987 WT2      9123     TIP3     OH2      OT      -0.834000       15.9994           0
     37988 WT2      9123     TIP3     H1       HT       0.417000        1.0080           0
     37989 WT2      9123     TIP3     H2       HT       0.417000        1.0080           0
     37990 WT2      9124     TIP3     OH2      OT      -0.834000       15.9994           0
     37991 WT2      9124     TIP3     H1       HT       0.417000        1.0080           0
     37992 WT2      9124     TIP3     H2       HT       0.417000        1.0080           0
     37993 WT2      9125     TIP3     OH2      OT      -0.834000       15.9994           0
     37994 WT2      9125     TIP3     H1       HT       0.417000        1.0080           0
     37995 WT2      9125     TIP3     H2       HT       0.417000        1.0080           0
     37996 WT2      9126     TIP3     OH2      OT      -0.834000       15.9994           0
     37997 WT2      9126     TIP3     H1       HT       0.417000        1.0080           0
     37998 WT2      9126     TIP3     H2       HT       0.417000        1.0080           0
     37999 WT2      9136     TIP3     OH2      OT      -0.834000       15.9994           0
     38000 WT2      9136     TIP3     H1       HT       0.417000        1.0080           0
     38001 WT2      9136     TIP3     H2       HT       0.417000        1.0080           0
     38002 WT2      9138     TIP3     OH2      OT      -0.834000       15.9994           0
     38003 WT2      9138     TIP3     H1       HT       0.417000        1.0080           0
     38004 WT2      9138     TIP3     H2       HT       0.417000        1.0080           0
     38005 WT2      9139     TIP3     OH2      OT      -0.834000       15.9994           0
     38006 WT2      9139     TIP3     H1       HT       0.417000        1.0080           0
     38007 WT2      9139     TIP3     H2       HT       0.417000        1.0080           0
     38008 WT2      9140     TIP3     OH2      OT      -0.834000       15.9994           0
     38009 WT2      9140     TIP3     H1       HT       0.417000        1.0080           0
     38010 WT2      9140     TIP3     H2       HT       0.417000        1.0080           0
     38011 WT2      9144     TIP3     OH2      OT      -0.834000       15.9994           0
     38012 WT2      9144     TIP3     H1       HT       0.417000        1.0080           0
     38013 WT2      9144     TIP3     H2       HT       0.417000        1.0080           0
     38014 WT2      9145     TIP3     OH2      OT      -0.834000       15.9994           0
     38015 WT2      9145     TIP3     H1       HT       0.417000        1.0080           0
     38016 WT2      9145     TIP3     H2       HT       0.417000        1.0080           0
     38017 WT2      9157     TIP3     OH2      OT      -0.834000       15.9994           0
     38018 WT2      9157     TIP3     H1       HT       0.417000        1.0080           0
     38019 WT2      9157     TIP3     H2       HT       0.417000        1.0080           0
     38020 WT2      9158     TIP3     OH2      OT      -0.834000       15.9994           0
     38021 WT2      9158     TIP3     H1       HT       0.417000        1.0080           0
     38022 WT2      9158     TIP3     H2       HT       0.417000        1.0080           0
     38023 WT2      9159     TIP3     OH2      OT      -0.834000       15.9994           0
     38024 WT2      9159     TIP3     H1       HT       0.417000        1.0080           0
     38025 WT2      9159     TIP3     H2       HT       0.417000        1.0080           0
     38026 WT2      9160     TIP3     OH2      OT      -0.834000       15.9994           0
     38027 WT2      9160     TIP3     H1       HT       0.417000        1.0080           0
     38028 WT2      9160     TIP3     H2       HT       0.417000        1.0080           0
     38029 WT2      9161     TIP3     OH2      OT      -0.834000       15.9994           0
     38030 WT2      9161     TIP3     H1       HT       0.417000        1.0080           0
     38031 WT2      9161     TIP3     H2       HT       0.417000        1.0080           0
     38032 WT2      9162     TIP3     OH2      OT      -0.834000       15.9994           0
     38033 WT2      9162     TIP3     H1       HT       0.417000        1.0080           0
     38034 WT2      9162     TIP3     H2       HT       0.417000        1.0080           0
     38035 WT2      9163     TIP3     OH2      OT      -0.834000       15.9994           0
     38036 WT2      9163     TIP3     H1       HT       0.417000        1.0080           0
     38037 WT2      9163     TIP3     H2       HT       0.417000        1.0080           0
     38038 WT2      9167     TIP3     OH2      OT      -0.834000       15.9994           0
     38039 WT2      9167     TIP3     H1       HT       0.417000        1.0080           0
     38040 WT2      9167     TIP3     H2       HT       0.417000        1.0080           0
     38041 WT2      9168     TIP3     OH2      OT      -0.834000       15.9994           0
     38042 WT2      9168     TIP3     H1       HT       0.417000        1.0080           0
     38043 WT2      9168     TIP3     H2       HT       0.417000        1.0080           0
     38044 WT2      9170     TIP3     OH2      OT      -0.834000       15.9994           0
     38045 WT2      9170     TIP3     H1       HT       0.417000        1.0080           0
     38046 WT2      9170     TIP3     H2       HT       0.417000        1.0080           0
     38047 WT2      9177     TIP3     OH2      OT      -0.834000       15.9994           0
     38048 WT2      9177     TIP3     H1       HT       0.417000        1.0080           0
     38049 WT2      9177     TIP3     H2       HT       0.417000        1.0080           0
     38050 WT2      9180     TIP3     OH2      OT      -0.834000       15.9994           0
     38051 WT2      9180     TIP3     H1       HT       0.417000        1.0080           0
     38052 WT2      9180     TIP3     H2       HT       0.417000        1.0080           0
     38053 WT2      9181     TIP3     OH2      OT      -0.834000       15.9994           0
     38054 WT2      9181     TIP3     H1       HT       0.417000        1.0080           0
     38055 WT2      9181     TIP3     H2       HT       0.417000        1.0080           0
     38056 WT2      9182     TIP3     OH2      OT      -0.834000       15.9994           0
     38057 WT2      9182     TIP3     H1       HT       0.417000        1.0080           0
     38058 WT2      9182     TIP3     H2       HT       0.417000        1.0080           0
     38059 WT2      9183     TIP3     OH2      OT      -0.834000       15.9994           0
     38060 WT2      9183     TIP3     H1       HT       0.417000        1.0080           0
     38061 WT2      9183     TIP3     H2       HT       0.417000        1.0080           0
     38062 WT2      9184     TIP3     OH2      OT      -0.834000       15.9994           0
     38063 WT2      9184     TIP3     H1       HT       0.417000        1.0080           0
     38064 WT2      9184     TIP3     H2       HT       0.417000        1.0080           0
     38065 WT2      9185     TIP3     OH2      OT      -0.834000       15.9994           0
     38066 WT2      9185     TIP3     H1       HT       0.417000        1.0080           0
     38067 WT2      9185     TIP3     H2       HT       0.417000        1.0080           0
     38068 WT2      9186     TIP3     OH2      OT      -0.834000       15.9994           0
     38069 WT2      9186     TIP3     H1       HT       0.417000        1.0080           0
     38070 WT2      9186     TIP3     H2       HT       0.417000        1.0080           0
     38071 WT2      9198     TIP3     OH2      OT      -0.834000       15.9994           0
     38072 WT2      9198     TIP3     H1       HT       0.417000        1.0080           0
     38073 WT2      9198     TIP3     H2       HT       0.417000        1.0080           0
     38074 WT2      9200     TIP3     OH2      OT      -0.834000       15.9994           0
     38075 WT2      9200     TIP3     H1       HT       0.417000        1.0080           0
     38076 WT2      9200     TIP3     H2       HT       0.417000        1.0080           0
     38077 WT2      9201     TIP3     OH2      OT      -0.834000       15.9994           0
     38078 WT2      9201     TIP3     H1       HT       0.417000        1.0080           0
     38079 WT2      9201     TIP3     H2       HT       0.417000        1.0080           0
     38080 WT2      9202     TIP3     OH2      OT      -0.834000       15.9994           0
     38081 WT2      9202     TIP3     H1       HT       0.417000        1.0080           0
     38082 WT2      9202     TIP3     H2       HT       0.417000        1.0080           0
     38083 WT2      9203     TIP3     OH2      OT      -0.834000       15.9994           0
     38084 WT2      9203     TIP3     H1       HT       0.417000        1.0080           0
     38085 WT2      9203     TIP3     H2       HT       0.417000        1.0080           0
     38086 WT2      9204     TIP3     OH2      OT      -0.834000       15.9994           0
     38087 WT2      9204     TIP3     H1       HT       0.417000        1.0080           0
     38088 WT2      9204     TIP3     H2       HT       0.417000        1.0080           0
     38089 WT2      9205     TIP3     OH2      OT      -0.834000       15.9994           0
     38090 WT2      9205     TIP3     H1       HT       0.417000        1.0080           0
     38091 WT2      9205     TIP3     H2       HT       0.417000        1.0080           0
     38092 WT2      9219     TIP3     OH2      OT      -0.834000       15.9994           0
     38093 WT2      9219     TIP3     H1       HT       0.417000        1.0080           0
     38094 WT2      9219     TIP3     H2       HT       0.417000        1.0080           0
     38095 WT2      9222     TIP3     OH2      OT      -0.834000       15.9994           0
     38096 WT2      9222     TIP3     H1       HT       0.417000        1.0080           0
     38097 WT2      9222     TIP3     H2       HT       0.417000        1.0080           0
     38098 WT2      9223     TIP3     OH2      OT      -0.834000       15.9994           0
     38099 WT2      9223     TIP3     H1       HT       0.417000        1.0080           0
     38100 WT2      9223     TIP3     H2       HT       0.417000        1.0080           0
     38101 WT2      9225     TIP3     OH2      OT      -0.834000       15.9994           0
     38102 WT2      9225     TIP3     H1       HT       0.417000        1.0080           0
     38103 WT2      9225     TIP3     H2       HT       0.417000        1.0080           0
     38104 WT2      9226     TIP3     OH2      OT      -0.834000       15.9994           0
     38105 WT2      9226     TIP3     H1       HT       0.417000        1.0080           0
     38106 WT2      9226     TIP3     H2       HT       0.417000        1.0080           0
     38107 WT2      9227     TIP3     OH2      OT      -0.834000       15.9994           0
     38108 WT2      9227     TIP3     H1       HT       0.417000        1.0080           0
     38109 WT2      9227     TIP3     H2       HT       0.417000        1.0080           0
     38110 WT2      9228     TIP3     OH2      OT      -0.834000       15.9994           0
     38111 WT2      9228     TIP3     H1       HT       0.417000        1.0080           0
     38112 WT2      9228     TIP3     H2       HT       0.417000        1.0080           0
     38113 WT2      9230     TIP3     OH2      OT      -0.834000       15.9994           0
     38114 WT2      9230     TIP3     H1       HT       0.417000        1.0080           0
     38115 WT2      9230     TIP3     H2       HT       0.417000        1.0080           0
     38116 WT2      9241     TIP3     OH2      OT      -0.834000       15.9994           0
     38117 WT2      9241     TIP3     H1       HT       0.417000        1.0080           0
     38118 WT2      9241     TIP3     H2       HT       0.417000        1.0080           0
     38119 WT2      9242     TIP3     OH2      OT      -0.834000       15.9994           0
     38120 WT2      9242     TIP3     H1       HT       0.417000        1.0080           0
     38121 WT2      9242     TIP3     H2       HT       0.417000        1.0080           0
     38122 WT2      9243     TIP3     OH2      OT      -0.834000       15.9994           0
     38123 WT2      9243     TIP3     H1       HT       0.417000        1.0080           0
     38124 WT2      9243     TIP3     H2       HT       0.417000        1.0080           0
     38125 WT2      9244     TIP3     OH2      OT      -0.834000       15.9994           0
     38126 WT2      9244     TIP3     H1       HT       0.417000        1.0080           0
     38127 WT2      9244     TIP3     H2       HT       0.417000        1.0080           0
     38128 WT2      9245     TIP3     OH2      OT      -0.834000       15.9994           0
     38129 WT2      9245     TIP3     H1       HT       0.417000        1.0080           0
     38130 WT2      9245     TIP3     H2       HT       0.417000        1.0080           0
     38131 WT2      9246     TIP3     OH2      OT      -0.834000       15.9994           0
     38132 WT2      9246     TIP3     H1       HT       0.417000        1.0080           0
     38133 WT2      9246     TIP3     H2       HT       0.417000        1.0080           0
     38134 WT2      9247     TIP3     OH2      OT      -0.834000       15.9994           0
     38135 WT2      9247     TIP3     H1       HT       0.417000        1.0080           0
     38136 WT2      9247     TIP3     H2       HT       0.417000        1.0080           0
     38137 WT2      9250     TIP3     OH2      OT      -0.834000       15.9994           0
     38138 WT2      9250     TIP3     H1       HT       0.417000        1.0080           0
     38139 WT2      9250     TIP3     H2       HT       0.417000        1.0080           0
     38140 WT2      9259     TIP3     OH2      OT      -0.834000       15.9994           0
     38141 WT2      9259     TIP3     H1       HT       0.417000        1.0080           0
     38142 WT2      9259     TIP3     H2       HT       0.417000        1.0080           0
     38143 WT2      9261     TIP3     OH2      OT      -0.834000       15.9994           0
     38144 WT2      9261     TIP3     H1       HT       0.417000        1.0080           0
     38145 WT2      9261     TIP3     H2       HT       0.417000        1.0080           0
     38146 WT3      4        TIP3     OH2      OT      -0.834000       15.9994           0
     38147 WT3      4        TIP3     H1       HT       0.417000        1.0080           0
     38148 WT3      4        TIP3     H2       HT       0.417000        1.0080           0
     38149 WT3      5        TIP3     OH2      OT      -0.834000       15.9994           0
     38150 WT3      5        TIP3     H1       HT       0.417000        1.0080           0
     38151 WT3      5        TIP3     H2       HT       0.417000        1.0080           0
     38152 WT3      6        TIP3     OH2      OT      -0.834000       15.9994           0
     38153 WT3      6        TIP3     H1       HT       0.417000        1.0080           0
     38154 WT3      6        TIP3     H2       HT       0.417000        1.0080           0
     38155 WT3      7        TIP3     OH2      OT      -0.834000       15.9994           0
     38156 WT3      7        TIP3     H1       HT       0.417000        1.0080           0
     38157 WT3      7        TIP3     H2       HT       0.417000        1.0080           0
     38158 WT3      8        TIP3     OH2      OT      -0.834000       15.9994           0
     38159 WT3      8        TIP3     H1       HT       0.417000        1.0080           0
     38160 WT3      8        TIP3     H2       HT       0.417000        1.0080           0
     38161 WT3      10       TIP3     OH2      OT      -0.834000       15.9994           0
     38162 WT3      10       TIP3     H1       HT       0.417000        1.0080           0
     38163 WT3      10       TIP3     H2       HT       0.417000        1.0080           0
     38164 WT3      11       TIP3     OH2      OT      -0.834000       15.9994           0
     38165 WT3      11       TIP3     H1       HT       0.417000        1.0080           0
     38166 WT3      11       TIP3     H2       HT       0.417000        1.0080           0
     38167 WT3      12       TIP3     OH2      OT      -0.834000       15.9994           0
     38168 WT3      12       TIP3     H1       HT       0.417000        1.0080           0
     38169 WT3      12       TIP3     H2       HT       0.417000        1.0080           0
     38170 WT3      13       TIP3     OH2      OT      -0.834000       15.9994           0
     38171 WT3      13       TIP3     H1       HT       0.417000        1.0080           0
     38172 WT3      13       TIP3     H2       HT       0.417000        1.0080           0
     38173 WT3      15       TIP3     OH2      OT      -0.834000       15.9994           0
     38174 WT3      15       TIP3     H1       HT       0.417000        1.0080           0
     38175 WT3      15       TIP3     H2       HT       0.417000        1.0080           0
     38176 WT3      16       TIP3     OH2      OT      -0.834000       15.9994           0
     38177 WT3      16       TIP3     H1       HT       0.417000        1.0080           0
     38178 WT3      16       TIP3     H2       HT       0.417000        1.0080           0
     38179 WT3      17       TIP3     OH2      OT      -0.834000       15.9994           0
     38180 WT3      17       TIP3     H1       HT       0.417000        1.0080           0
     38181 WT3      17       TIP3     H2       HT       0.417000        1.0080           0
     38182 WT3      18       TIP3     OH2      OT      -0.834000       15.9994           0
     38183 WT3      18       TIP3     H1       HT       0.417000        1.0080           0
     38184 WT3      18       TIP3     H2       HT       0.417000        1.0080           0
     38185 WT3      19       TIP3     OH2      OT      -0.834000       15.9994           0
     38186 WT3      19       TIP3     H1       HT       0.417000        1.0080           0
     38187 WT3      19       TIP3     H2       HT       0.417000        1.0080           0
     38188 WT3      20       TIP3     OH2      OT      -0.834000       15.9994           0
     38189 WT3      20       TIP3     H1       HT       0.417000        1.0080           0
     38190 WT3      20       TIP3     H2       HT       0.417000        1.0080           0
     38191 WT3      21       TIP3     OH2      OT      -0.834000       15.9994           0
     38192 WT3      21       TIP3     H1       HT       0.417000        1.0080           0
     38193 WT3      21       TIP3     H2       HT       0.417000        1.0080           0
     38194 WT3      22       TIP3     OH2      OT      -0.834000       15.9994           0
     38195 WT3      22       TIP3     H1       HT       0.417000        1.0080           0
     38196 WT3      22       TIP3     H2       HT       0.417000        1.0080           0
     38197 WT3      23       TIP3     OH2      OT      -0.834000       15.9994           0
     38198 WT3      23       TIP3     H1       HT       0.417000        1.0080           0
     38199 WT3      23       TIP3     H2       HT       0.417000        1.0080           0
     38200 WT3      24       TIP3     OH2      OT      -0.834000       15.9994           0
     38201 WT3      24       TIP3     H1       HT       0.417000        1.0080           0
     38202 WT3      24       TIP3     H2       HT       0.417000        1.0080           0
     38203 WT3      25       TIP3     OH2      OT      -0.834000       15.9994           0
     38204 WT3      25       TIP3     H1       HT       0.417000        1.0080           0
     38205 WT3      25       TIP3     H2       HT       0.417000        1.0080           0
     38206 WT3      26       TIP3     OH2      OT      -0.834000       15.9994           0
     38207 WT3      26       TIP3     H1       HT       0.417000        1.0080           0
     38208 WT3      26       TIP3     H2       HT       0.417000        1.0080           0
     38209 WT3      27       TIP3     OH2      OT      -0.834000       15.9994           0
     38210 WT3      27       TIP3     H1       HT       0.417000        1.0080           0
     38211 WT3      27       TIP3     H2       HT       0.417000        1.0080           0
     38212 WT3      29       TIP3     OH2      OT      -0.834000       15.9994           0
     38213 WT3      29       TIP3     H1       HT       0.417000        1.0080           0
     38214 WT3      29       TIP3     H2       HT       0.417000        1.0080           0
     38215 WT3      31       TIP3     OH2      OT      -0.834000       15.9994           0
     38216 WT3      31       TIP3     H1       HT       0.417000        1.0080           0
     38217 WT3      31       TIP3     H2       HT       0.417000        1.0080           0
     38218 WT3      32       TIP3     OH2      OT      -0.834000       15.9994           0
     38219 WT3      32       TIP3     H1       HT       0.417000        1.0080           0
     38220 WT3      32       TIP3     H2       HT       0.417000        1.0080           0
     38221 WT3      33       TIP3     OH2      OT      -0.834000       15.9994           0
     38222 WT3      33       TIP3     H1       HT       0.417000        1.0080           0
     38223 WT3      33       TIP3     H2       HT       0.417000        1.0080           0
     38224 WT3      34       TIP3     OH2      OT      -0.834000       15.9994           0
     38225 WT3      34       TIP3     H1       HT       0.417000        1.0080           0
     38226 WT3      34       TIP3     H2       HT       0.417000        1.0080           0
     38227 WT3      35       TIP3     OH2      OT      -0.834000       15.9994           0
     38228 WT3      35       TIP3     H1       HT       0.417000        1.0080           0
     38229 WT3      35       TIP3     H2       HT       0.417000        1.0080           0
     38230 WT3      37       TIP3     OH2      OT      -0.834000       15.9994           0
     38231 WT3      37       TIP3     H1       HT       0.417000        1.0080           0
     38232 WT3      37       TIP3     H2       HT       0.417000        1.0080           0
     38233 WT3      39       TIP3     OH2      OT      -0.834000       15.9994           0
     38234 WT3      39       TIP3     H1       HT       0.417000        1.0080           0
     38235 WT3      39       TIP3     H2       HT       0.417000        1.0080           0
     38236 WT3      41       TIP3     OH2      OT      -0.834000       15.9994           0
     38237 WT3      41       TIP3     H1       HT       0.417000        1.0080           0
     38238 WT3      41       TIP3     H2       HT       0.417000        1.0080           0
     38239 WT3      42       TIP3     OH2      OT      -0.834000       15.9994           0
     38240 WT3      42       TIP3     H1       HT       0.417000        1.0080           0
     38241 WT3      42       TIP3     H2       HT       0.417000        1.0080           0
     38242 WT3      43       TIP3     OH2      OT      -0.834000       15.9994           0
     38243 WT3      43       TIP3     H1       HT       0.417000        1.0080           0
     38244 WT3      43       TIP3     H2       HT       0.417000        1.0080           0
     38245 WT3      44       TIP3     OH2      OT      -0.834000       15.9994           0
     38246 WT3      44       TIP3     H1       HT       0.417000        1.0080           0
     38247 WT3      44       TIP3     H2       HT       0.417000        1.0080           0
     38248 WT3      45       TIP3     OH2      OT      -0.834000       15.9994           0
     38249 WT3      45       TIP3     H1       HT       0.417000        1.0080           0
     38250 WT3      45       TIP3     H2       HT       0.417000        1.0080           0
     38251 WT3      46       TIP3     OH2      OT      -0.834000       15.9994           0
     38252 WT3      46       TIP3     H1       HT       0.417000        1.0080           0
     38253 WT3      46       TIP3     H2       HT       0.417000        1.0080           0
     38254 WT3      47       TIP3     OH2      OT      -0.834000       15.9994           0
     38255 WT3      47       TIP3     H1       HT       0.417000        1.0080           0
     38256 WT3      47       TIP3     H2       HT       0.417000        1.0080           0
     38257 WT3      48       TIP3     OH2      OT      -0.834000       15.9994           0
     38258 WT3      48       TIP3     H1       HT       0.417000        1.0080           0
     38259 WT3      48       TIP3     H2       HT       0.417000        1.0080           0
     38260 WT3      50       TIP3     OH2      OT      -0.834000       15.9994           0
     38261 WT3      50       TIP3     H1       HT       0.417000        1.0080           0
     38262 WT3      50       TIP3     H2       HT       0.417000        1.0080           0
     38263 WT3      52       TIP3     OH2      OT      -0.834000       15.9994           0
     38264 WT3      52       TIP3     H1       HT       0.417000        1.0080           0
     38265 WT3      52       TIP3     H2       HT       0.417000        1.0080           0
     38266 WT3      53       TIP3     OH2      OT      -0.834000       15.9994           0
     38267 WT3      53       TIP3     H1       HT       0.417000        1.0080           0
     38268 WT3      53       TIP3     H2       HT       0.417000        1.0080           0
     38269 WT3      55       TIP3     OH2      OT      -0.834000       15.9994           0
     38270 WT3      55       TIP3     H1       HT       0.417000        1.0080           0
     38271 WT3      55       TIP3     H2       HT       0.417000        1.0080           0
     38272 WT3      56       TIP3     OH2      OT      -0.834000       15.9994           0
     38273 WT3      56       TIP3     H1       HT       0.417000        1.0080           0
     38274 WT3      56       TIP3     H2       HT       0.417000        1.0080           0
     38275 WT3      57       TIP3     OH2      OT      -0.834000       15.9994           0
     38276 WT3      57       TIP3     H1       HT       0.417000        1.0080           0
     38277 WT3      57       TIP3     H2       HT       0.417000        1.0080           0
     38278 WT3      58       TIP3     OH2      OT      -0.834000       15.9994           0
     38279 WT3      58       TIP3     H1       HT       0.417000        1.0080           0
     38280 WT3      58       TIP3     H2       HT       0.417000        1.0080           0
     38281 WT3      59       TIP3     OH2      OT      -0.834000       15.9994           0
     38282 WT3      59       TIP3     H1       HT       0.417000        1.0080           0
     38283 WT3      59       TIP3     H2       HT       0.417000        1.0080           0
     38284 WT3      60       TIP3     OH2      OT      -0.834000       15.9994           0
     38285 WT3      60       TIP3     H1       HT       0.417000        1.0080           0
     38286 WT3      60       TIP3     H2       HT       0.417000        1.0080           0
     38287 WT3      61       TIP3     OH2      OT      -0.834000       15.9994           0
     38288 WT3      61       TIP3     H1       HT       0.417000        1.0080           0
     38289 WT3      61       TIP3     H2       HT       0.417000        1.0080           0
     38290 WT3      62       TIP3     OH2      OT      -0.834000       15.9994           0
     38291 WT3      62       TIP3     H1       HT       0.417000        1.0080           0
     38292 WT3      62       TIP3     H2       HT       0.417000        1.0080           0
     38293 WT3      63       TIP3     OH2      OT      -0.834000       15.9994           0
     38294 WT3      63       TIP3     H1       HT       0.417000        1.0080           0
     38295 WT3      63       TIP3     H2       HT       0.417000        1.0080           0
     38296 WT3      64       TIP3     OH2      OT      -0.834000       15.9994           0
     38297 WT3      64       TIP3     H1       HT       0.417000        1.0080           0
     38298 WT3      64       TIP3     H2       HT       0.417000        1.0080           0
     38299 WT3      66       TIP3     OH2      OT      -0.834000       15.9994           0
     38300 WT3      66       TIP3     H1       HT       0.417000        1.0080           0
     38301 WT3      66       TIP3     H2       HT       0.417000        1.0080           0
     38302 WT3      67       TIP3     OH2      OT      -0.834000       15.9994           0
     38303 WT3      67       TIP3     H1       HT       0.417000        1.0080           0
     38304 WT3      67       TIP3     H2       HT       0.417000        1.0080           0
     38305 WT3      68       TIP3     OH2      OT      -0.834000       15.9994           0
     38306 WT3      68       TIP3     H1       HT       0.417000        1.0080           0
     38307 WT3      68       TIP3     H2       HT       0.417000        1.0080           0
     38308 WT3      69       TIP3     OH2      OT      -0.834000       15.9994           0
     38309 WT3      69       TIP3     H1       HT       0.417000        1.0080           0
     38310 WT3      69       TIP3     H2       HT       0.417000        1.0080           0
     38311 WT3      70       TIP3     OH2      OT      -0.834000       15.9994           0
     38312 WT3      70       TIP3     H1       HT       0.417000        1.0080           0
     38313 WT3      70       TIP3     H2       HT       0.417000        1.0080           0
     38314 WT3      71       TIP3     OH2      OT      -0.834000       15.9994           0
     38315 WT3      71       TIP3     H1       HT       0.417000        1.0080           0
     38316 WT3      71       TIP3     H2       HT       0.417000        1.0080           0
     38317 WT3      72       TIP3     OH2      OT      -0.834000       15.9994           0
     38318 WT3      72       TIP3     H1       HT       0.417000        1.0080           0
     38319 WT3      72       TIP3     H2       HT       0.417000        1.0080           0
     38320 WT3      74       TIP3     OH2      OT      -0.834000       15.9994           0
     38321 WT3      74       TIP3     H1       HT       0.417000        1.0080           0
     38322 WT3      74       TIP3     H2       HT       0.417000        1.0080           0
     38323 WT3      75       TIP3     OH2      OT      -0.834000       15.9994           0
     38324 WT3      75       TIP3     H1       HT       0.417000        1.0080           0
     38325 WT3      75       TIP3     H2       HT       0.417000        1.0080           0
     38326 WT3      76       TIP3     OH2      OT      -0.834000       15.9994           0
     38327 WT3      76       TIP3     H1       HT       0.417000        1.0080           0
     38328 WT3      76       TIP3     H2       HT       0.417000        1.0080           0
     38329 WT3      78       TIP3     OH2      OT      -0.834000       15.9994           0
     38330 WT3      78       TIP3     H1       HT       0.417000        1.0080           0
     38331 WT3      78       TIP3     H2       HT       0.417000        1.0080           0
     38332 WT3      79       TIP3     OH2      OT      -0.834000       15.9994           0
     38333 WT3      79       TIP3     H1       HT       0.417000        1.0080           0
     38334 WT3      79       TIP3     H2       HT       0.417000        1.0080           0
     38335 WT3      80       TIP3     OH2      OT      -0.834000       15.9994           0
     38336 WT3      80       TIP3     H1       HT       0.417000        1.0080           0
     38337 WT3      80       TIP3     H2       HT       0.417000        1.0080           0
     38338 WT3      81       TIP3     OH2      OT      -0.834000       15.9994           0
     38339 WT3      81       TIP3     H1       HT       0.417000        1.0080           0
     38340 WT3      81       TIP3     H2       HT       0.417000        1.0080           0
     38341 WT3      82       TIP3     OH2      OT      -0.834000       15.9994           0
     38342 WT3      82       TIP3     H1       HT       0.417000        1.0080           0
     38343 WT3      82       TIP3     H2       HT       0.417000        1.0080           0
     38344 WT3      84       TIP3     OH2      OT      -0.834000       15.9994           0
     38345 WT3      84       TIP3     H1       HT       0.417000        1.0080           0
     38346 WT3      84       TIP3     H2       HT       0.417000        1.0080           0
     38347 WT3      87       TIP3     OH2      OT      -0.834000       15.9994           0
     38348 WT3      87       TIP3     H1       HT       0.417000        1.0080           0
     38349 WT3      87       TIP3     H2       HT       0.417000        1.0080           0
     38350 WT3      88       TIP3     OH2      OT      -0.834000       15.9994           0
     38351 WT3      88       TIP3     H1       HT       0.417000        1.0080           0
     38352 WT3      88       TIP3     H2       HT       0.417000        1.0080           0
     38353 WT3      90       TIP3     OH2      OT      -0.834000       15.9994           0
     38354 WT3      90       TIP3     H1       HT       0.417000        1.0080           0
     38355 WT3      90       TIP3     H2       HT       0.417000        1.0080           0
     38356 WT3      91       TIP3     OH2      OT      -0.834000       15.9994           0
     38357 WT3      91       TIP3     H1       HT       0.417000        1.0080           0
     38358 WT3      91       TIP3     H2       HT       0.417000        1.0080           0
     38359 WT3      93       TIP3     OH2      OT      -0.834000       15.9994           0
     38360 WT3      93       TIP3     H1       HT       0.417000        1.0080           0
     38361 WT3      93       TIP3     H2       HT       0.417000        1.0080           0
     38362 WT3      94       TIP3     OH2      OT      -0.834000       15.9994           0
     38363 WT3      94       TIP3     H1       HT       0.417000        1.0080           0
     38364 WT3      94       TIP3     H2       HT       0.417000        1.0080           0
     38365 WT3      95       TIP3     OH2      OT      -0.834000       15.9994           0
     38366 WT3      95       TIP3     H1       HT       0.417000        1.0080           0
     38367 WT3      95       TIP3     H2       HT       0.417000        1.0080           0
     38368 WT3      97       TIP3     OH2      OT      -0.834000       15.9994           0
     38369 WT3      97       TIP3     H1       HT       0.417000        1.0080           0
     38370 WT3      97       TIP3     H2       HT       0.417000        1.0080           0
     38371 WT3      98       TIP3     OH2      OT      -0.834000       15.9994           0
     38372 WT3      98       TIP3     H1       HT       0.417000        1.0080           0
     38373 WT3      98       TIP3     H2       HT       0.417000        1.0080           0
     38374 WT3      99       TIP3     OH2      OT      -0.834000       15.9994           0
     38375 WT3      99       TIP3     H1       HT       0.417000        1.0080           0
     38376 WT3      99       TIP3     H2       HT       0.417000        1.0080           0
     38377 WT3      100      TIP3     OH2      OT      -0.834000       15.9994           0
     38378 WT3      100      TIP3     H1       HT       0.417000        1.0080           0
     38379 WT3      100      TIP3     H2       HT       0.417000        1.0080           0
     38380 WT3      101      TIP3     OH2      OT      -0.834000       15.9994           0
     38381 WT3      101      TIP3     H1       HT       0.417000        1.0080           0
     38382 WT3      101      TIP3     H2       HT       0.417000        1.0080           0
     38383 WT3      102      TIP3     OH2      OT      -0.834000       15.9994           0
     38384 WT3      102      TIP3     H1       HT       0.417000        1.0080           0
     38385 WT3      102      TIP3     H2       HT       0.417000        1.0080           0
     38386 WT3      105      TIP3     OH2      OT      -0.834000       15.9994           0
     38387 WT3      105      TIP3     H1       HT       0.417000        1.0080           0
     38388 WT3      105      TIP3     H2       HT       0.417000        1.0080           0
     38389 WT3      106      TIP3     OH2      OT      -0.834000       15.9994           0
     38390 WT3      106      TIP3     H1       HT       0.417000        1.0080           0
     38391 WT3      106      TIP3     H2       HT       0.417000        1.0080           0
     38392 WT3      107      TIP3     OH2      OT      -0.834000       15.9994           0
     38393 WT3      107      TIP3     H1       HT       0.417000        1.0080           0
     38394 WT3      107      TIP3     H2       HT       0.417000        1.0080           0
     38395 WT3      108      TIP3     OH2      OT      -0.834000       15.9994           0
     38396 WT3      108      TIP3     H1       HT       0.417000        1.0080           0
     38397 WT3      108      TIP3     H2       HT       0.417000        1.0080           0
     38398 WT3      109      TIP3     OH2      OT      -0.834000       15.9994           0
     38399 WT3      109      TIP3     H1       HT       0.417000        1.0080           0
     38400 WT3      109      TIP3     H2       HT       0.417000        1.0080           0
     38401 WT3      110      TIP3     OH2      OT      -0.834000       15.9994           0
     38402 WT3      110      TIP3     H1       HT       0.417000        1.0080           0
     38403 WT3      110      TIP3     H2       HT       0.417000        1.0080           0
     38404 WT3      111      TIP3     OH2      OT      -0.834000       15.9994           0
     38405 WT3      111      TIP3     H1       HT       0.417000        1.0080           0
     38406 WT3      111      TIP3     H2       HT       0.417000        1.0080           0
     38407 WT3      113      TIP3     OH2      OT      -0.834000       15.9994           0
     38408 WT3      113      TIP3     H1       HT       0.417000        1.0080           0
     38409 WT3      113      TIP3     H2       HT       0.417000        1.0080           0
     38410 WT3      114      TIP3     OH2      OT      -0.834000       15.9994           0
     38411 WT3      114      TIP3     H1       HT       0.417000        1.0080           0
     38412 WT3      114      TIP3     H2       HT       0.417000        1.0080           0
     38413 WT3      115      TIP3     OH2      OT      -0.834000       15.9994           0
     38414 WT3      115      TIP3     H1       HT       0.417000        1.0080           0
     38415 WT3      115      TIP3     H2       HT       0.417000        1.0080           0
     38416 WT3      116      TIP3     OH2      OT      -0.834000       15.9994           0
     38417 WT3      116      TIP3     H1       HT       0.417000        1.0080           0
     38418 WT3      116      TIP3     H2       HT       0.417000        1.0080           0
     38419 WT3      117      TIP3     OH2      OT      -0.834000       15.9994           0
     38420 WT3      117      TIP3     H1       HT       0.417000        1.0080           0
     38421 WT3      117      TIP3     H2       HT       0.417000        1.0080           0
     38422 WT3      118      TIP3     OH2      OT      -0.834000       15.9994           0
     38423 WT3      118      TIP3     H1       HT       0.417000        1.0080           0
     38424 WT3      118      TIP3     H2       HT       0.417000        1.0080           0
     38425 WT3      119      TIP3     OH2      OT      -0.834000       15.9994           0
     38426 WT3      119      TIP3     H1       HT       0.417000        1.0080           0
     38427 WT3      119      TIP3     H2       HT       0.417000        1.0080           0
     38428 WT3      120      TIP3     OH2      OT      -0.834000       15.9994           0
     38429 WT3      120      TIP3     H1       HT       0.417000        1.0080           0
     38430 WT3      120      TIP3     H2       HT       0.417000        1.0080           0
     38431 WT3      121      TIP3     OH2      OT      -0.834000       15.9994           0
     38432 WT3      121      TIP3     H1       HT       0.417000        1.0080           0
     38433 WT3      121      TIP3     H2       HT       0.417000        1.0080           0
     38434 WT3      122      TIP3     OH2      OT      -0.834000       15.9994           0
     38435 WT3      122      TIP3     H1       HT       0.417000        1.0080           0
     38436 WT3      122      TIP3     H2       HT       0.417000        1.0080           0
     38437 WT3      123      TIP3     OH2      OT      -0.834000       15.9994           0
     38438 WT3      123      TIP3     H1       HT       0.417000        1.0080           0
     38439 WT3      123      TIP3     H2       HT       0.417000        1.0080           0
     38440 WT3      124      TIP3     OH2      OT      -0.834000       15.9994           0
     38441 WT3      124      TIP3     H1       HT       0.417000        1.0080           0
     38442 WT3      124      TIP3     H2       HT       0.417000        1.0080           0
     38443 WT3      125      TIP3     OH2      OT      -0.834000       15.9994           0
     38444 WT3      125      TIP3     H1       HT       0.417000        1.0080           0
     38445 WT3      125      TIP3     H2       HT       0.417000        1.0080           0
     38446 WT3      126      TIP3     OH2      OT      -0.834000       15.9994           0
     38447 WT3      126      TIP3     H1       HT       0.417000        1.0080           0
     38448 WT3      126      TIP3     H2       HT       0.417000        1.0080           0
     38449 WT3      127      TIP3     OH2      OT      -0.834000       15.9994           0
     38450 WT3      127      TIP3     H1       HT       0.417000        1.0080           0
     38451 WT3      127      TIP3     H2       HT       0.417000        1.0080           0
     38452 WT3      130      TIP3     OH2      OT      -0.834000       15.9994           0
     38453 WT3      130      TIP3     H1       HT       0.417000        1.0080           0
     38454 WT3      130      TIP3     H2       HT       0.417000        1.0080           0
     38455 WT3      133      TIP3     OH2      OT      -0.834000       15.9994           0
     38456 WT3      133      TIP3     H1       HT       0.417000        1.0080           0
     38457 WT3      133      TIP3     H2       HT       0.417000        1.0080           0
     38458 WT3      134      TIP3     OH2      OT      -0.834000       15.9994           0
     38459 WT3      134      TIP3     H1       HT       0.417000        1.0080           0
     38460 WT3      134      TIP3     H2       HT       0.417000        1.0080           0
     38461 WT3      135      TIP3     OH2      OT      -0.834000       15.9994           0
     38462 WT3      135      TIP3     H1       HT       0.417000        1.0080           0
     38463 WT3      135      TIP3     H2       HT       0.417000        1.0080           0
     38464 WT3      136      TIP3     OH2      OT      -0.834000       15.9994           0
     38465 WT3      136      TIP3     H1       HT       0.417000        1.0080           0
     38466 WT3      136      TIP3     H2       HT       0.417000        1.0080           0
     38467 WT3      137      TIP3     OH2      OT      -0.834000       15.9994           0
     38468 WT3      137      TIP3     H1       HT       0.417000        1.0080           0
     38469 WT3      137      TIP3     H2       HT       0.417000        1.0080           0
     38470 WT3      138      TIP3     OH2      OT      -0.834000       15.9994           0
     38471 WT3      138      TIP3     H1       HT       0.417000        1.0080           0
     38472 WT3      138      TIP3     H2       HT       0.417000        1.0080           0
     38473 WT3      139      TIP3     OH2      OT      -0.834000       15.9994           0
     38474 WT3      139      TIP3     H1       HT       0.417000        1.0080           0
     38475 WT3      139      TIP3     H2       HT       0.417000        1.0080           0
     38476 WT3      140      TIP3     OH2      OT      -0.834000       15.9994           0
     38477 WT3      140      TIP3     H1       HT       0.417000        1.0080           0
     38478 WT3      140      TIP3     H2       HT       0.417000        1.0080           0
     38479 WT3      141      TIP3     OH2      OT      -0.834000       15.9994           0
     38480 WT3      141      TIP3     H1       HT       0.417000        1.0080           0
     38481 WT3      141      TIP3     H2       HT       0.417000        1.0080           0
     38482 WT3      142      TIP3     OH2      OT      -0.834000       15.9994           0
     38483 WT3      142      TIP3     H1       HT       0.417000        1.0080           0
     38484 WT3      142      TIP3     H2       HT       0.417000        1.0080           0
     38485 WT3      143      TIP3     OH2      OT      -0.834000       15.9994           0
     38486 WT3      143      TIP3     H1       HT       0.417000        1.0080           0
     38487 WT3      143      TIP3     H2       HT       0.417000        1.0080           0
     38488 WT3      144      TIP3     OH2      OT      -0.834000       15.9994           0
     38489 WT3      144      TIP3     H1       HT       0.417000        1.0080           0
     38490 WT3      144      TIP3     H2       HT       0.417000        1.0080           0
     38491 WT3      147      TIP3     OH2      OT      -0.834000       15.9994           0
     38492 WT3      147      TIP3     H1       HT       0.417000        1.0080           0
     38493 WT3      147      TIP3     H2       HT       0.417000        1.0080           0
     38494 WT3      148      TIP3     OH2      OT      -0.834000       15.9994           0
     38495 WT3      148      TIP3     H1       HT       0.417000        1.0080           0
     38496 WT3      148      TIP3     H2       HT       0.417000        1.0080           0
     38497 WT3      150      TIP3     OH2      OT      -0.834000       15.9994           0
     38498 WT3      150      TIP3     H1       HT       0.417000        1.0080           0
     38499 WT3      150      TIP3     H2       HT       0.417000        1.0080           0
     38500 WT3      151      TIP3     OH2      OT      -0.834000       15.9994           0
     38501 WT3      151      TIP3     H1       HT       0.417000        1.0080           0
     38502 WT3      151      TIP3     H2       HT       0.417000        1.0080           0
     38503 WT3      152      TIP3     OH2      OT      -0.834000       15.9994           0
     38504 WT3      152      TIP3     H1       HT       0.417000        1.0080           0
     38505 WT3      152      TIP3     H2       HT       0.417000        1.0080           0
     38506 WT3      153      TIP3     OH2      OT      -0.834000       15.9994           0
     38507 WT3      153      TIP3     H1       HT       0.417000        1.0080           0
     38508 WT3      153      TIP3     H2       HT       0.417000        1.0080           0
     38509 WT3      154      TIP3     OH2      OT      -0.834000       15.9994           0
     38510 WT3      154      TIP3     H1       HT       0.417000        1.0080           0
     38511 WT3      154      TIP3     H2       HT       0.417000        1.0080           0
     38512 WT3      155      TIP3     OH2      OT      -0.834000       15.9994           0
     38513 WT3      155      TIP3     H1       HT       0.417000        1.0080           0
     38514 WT3      155      TIP3     H2       HT       0.417000        1.0080           0
     38515 WT3      159      TIP3     OH2      OT      -0.834000       15.9994           0
     38516 WT3      159      TIP3     H1       HT       0.417000        1.0080           0
     38517 WT3      159      TIP3     H2       HT       0.417000        1.0080           0
     38518 WT3      161      TIP3     OH2      OT      -0.834000       15.9994           0
     38519 WT3      161      TIP3     H1       HT       0.417000        1.0080           0
     38520 WT3      161      TIP3     H2       HT       0.417000        1.0080           0
     38521 WT3      162      TIP3     OH2      OT      -0.834000       15.9994           0
     38522 WT3      162      TIP3     H1       HT       0.417000        1.0080           0
     38523 WT3      162      TIP3     H2       HT       0.417000        1.0080           0
     38524 WT3      165      TIP3     OH2      OT      -0.834000       15.9994           0
     38525 WT3      165      TIP3     H1       HT       0.417000        1.0080           0
     38526 WT3      165      TIP3     H2       HT       0.417000        1.0080           0
     38527 WT3      166      TIP3     OH2      OT      -0.834000       15.9994           0
     38528 WT3      166      TIP3     H1       HT       0.417000        1.0080           0
     38529 WT3      166      TIP3     H2       HT       0.417000        1.0080           0
     38530 WT3      167      TIP3     OH2      OT      -0.834000       15.9994           0
     38531 WT3      167      TIP3     H1       HT       0.417000        1.0080           0
     38532 WT3      167      TIP3     H2       HT       0.417000        1.0080           0
     38533 WT3      176      TIP3     OH2      OT      -0.834000       15.9994           0
     38534 WT3      176      TIP3     H1       HT       0.417000        1.0080           0
     38535 WT3      176      TIP3     H2       HT       0.417000        1.0080           0
     38536 WT3      177      TIP3     OH2      OT      -0.834000       15.9994           0
     38537 WT3      177      TIP3     H1       HT       0.417000        1.0080           0
     38538 WT3      177      TIP3     H2       HT       0.417000        1.0080           0
     38539 WT3      183      TIP3     OH2      OT      -0.834000       15.9994           0
     38540 WT3      183      TIP3     H1       HT       0.417000        1.0080           0
     38541 WT3      183      TIP3     H2       HT       0.417000        1.0080           0
     38542 WT3      186      TIP3     OH2      OT      -0.834000       15.9994           0
     38543 WT3      186      TIP3     H1       HT       0.417000        1.0080           0
     38544 WT3      186      TIP3     H2       HT       0.417000        1.0080           0
     38545 WT3      187      TIP3     OH2      OT      -0.834000       15.9994           0
     38546 WT3      187      TIP3     H1       HT       0.417000        1.0080           0
     38547 WT3      187      TIP3     H2       HT       0.417000        1.0080           0
     38548 WT3      188      TIP3     OH2      OT      -0.834000       15.9994           0
     38549 WT3      188      TIP3     H1       HT       0.417000        1.0080           0
     38550 WT3      188      TIP3     H2       HT       0.417000        1.0080           0
     38551 WT3      197      TIP3     OH2      OT      -0.834000       15.9994           0
     38552 WT3      197      TIP3     H1       HT       0.417000        1.0080           0
     38553 WT3      197      TIP3     H2       HT       0.417000        1.0080           0
     38554 WT3      200      TIP3     OH2      OT      -0.834000       15.9994           0
     38555 WT3      200      TIP3     H1       HT       0.417000        1.0080           0
     38556 WT3      200      TIP3     H2       HT       0.417000        1.0080           0
     38557 WT3      204      TIP3     OH2      OT      -0.834000       15.9994           0
     38558 WT3      204      TIP3     H1       HT       0.417000        1.0080           0
     38559 WT3      204      TIP3     H2       HT       0.417000        1.0080           0
     38560 WT3      225      TIP3     OH2      OT      -0.834000       15.9994           0
     38561 WT3      225      TIP3     H1       HT       0.417000        1.0080           0
     38562 WT3      225      TIP3     H2       HT       0.417000        1.0080           0
     38563 WT3      232      TIP3     OH2      OT      -0.834000       15.9994           0
     38564 WT3      232      TIP3     H1       HT       0.417000        1.0080           0
     38565 WT3      232      TIP3     H2       HT       0.417000        1.0080           0
     38566 WT3      236      TIP3     OH2      OT      -0.834000       15.9994           0
     38567 WT3      236      TIP3     H1       HT       0.417000        1.0080           0
     38568 WT3      236      TIP3     H2       HT       0.417000        1.0080           0
     38569 WT3      239      TIP3     OH2      OT      -0.834000       15.9994           0
     38570 WT3      239      TIP3     H1       HT       0.417000        1.0080           0
     38571 WT3      239      TIP3     H2       HT       0.417000        1.0080           0
     38572 WT3      241      TIP3     OH2      OT      -0.834000       15.9994           0
     38573 WT3      241      TIP3     H1       HT       0.417000        1.0080           0
     38574 WT3      241      TIP3     H2       HT       0.417000        1.0080           0
     38575 WT3      270      TIP3     OH2      OT      -0.834000       15.9994           0
     38576 WT3      270      TIP3     H1       HT       0.417000        1.0080           0
     38577 WT3      270      TIP3     H2       HT       0.417000        1.0080           0
     38578 WT3      290      TIP3     OH2      OT      -0.834000       15.9994           0
     38579 WT3      290      TIP3     H1       HT       0.417000        1.0080           0
     38580 WT3      290      TIP3     H2       HT       0.417000        1.0080           0
     38581 WT3      360      TIP3     OH2      OT      -0.834000       15.9994           0
     38582 WT3      360      TIP3     H1       HT       0.417000        1.0080           0
     38583 WT3      360      TIP3     H2       HT       0.417000        1.0080           0
     38584 WT3      365      TIP3     OH2      OT      -0.834000       15.9994           0
     38585 WT3      365      TIP3     H1       HT       0.417000        1.0080           0
     38586 WT3      365      TIP3     H2       HT       0.417000        1.0080           0
     38587 WT3      379      TIP3     OH2      OT      -0.834000       15.9994           0
     38588 WT3      379      TIP3     H1       HT       0.417000        1.0080           0
     38589 WT3      379      TIP3     H2       HT       0.417000        1.0080           0
     38590 WT3      400      TIP3     OH2      OT      -0.834000       15.9994           0
     38591 WT3      400      TIP3     H1       HT       0.417000        1.0080           0
     38592 WT3      400      TIP3     H2       HT       0.417000        1.0080           0
     38593 WT3      407      TIP3     OH2      OT      -0.834000       15.9994           0
     38594 WT3      407      TIP3     H1       HT       0.417000        1.0080           0
     38595 WT3      407      TIP3     H2       HT       0.417000        1.0080           0
     38596 WT3      408      TIP3     OH2      OT      -0.834000       15.9994           0
     38597 WT3      408      TIP3     H1       HT       0.417000        1.0080           0
     38598 WT3      408      TIP3     H2       HT       0.417000        1.0080           0
     38599 WT3      411      TIP3     OH2      OT      -0.834000       15.9994           0
     38600 WT3      411      TIP3     H1       HT       0.417000        1.0080           0
     38601 WT3      411      TIP3     H2       HT       0.417000        1.0080           0
     38602 WT3      412      TIP3     OH2      OT      -0.834000       15.9994           0
     38603 WT3      412      TIP3     H1       HT       0.417000        1.0080           0
     38604 WT3      412      TIP3     H2       HT       0.417000        1.0080           0
     38605 WT3      413      TIP3     OH2      OT      -0.834000       15.9994           0
     38606 WT3      413      TIP3     H1       HT       0.417000        1.0080           0
     38607 WT3      413      TIP3     H2       HT       0.417000        1.0080           0
     38608 WT3      417      TIP3     OH2      OT      -0.834000       15.9994           0
     38609 WT3      417      TIP3     H1       HT       0.417000        1.0080           0
     38610 WT3      417      TIP3     H2       HT       0.417000        1.0080           0
     38611 WT3      421      TIP3     OH2      OT      -0.834000       15.9994           0
     38612 WT3      421      TIP3     H1       HT       0.417000        1.0080           0
     38613 WT3      421      TIP3     H2       HT       0.417000        1.0080           0
     38614 WT3      424      TIP3     OH2      OT      -0.834000       15.9994           0
     38615 WT3      424      TIP3     H1       HT       0.417000        1.0080           0
     38616 WT3      424      TIP3     H2       HT       0.417000        1.0080           0
     38617 WT3      429      TIP3     OH2      OT      -0.834000       15.9994           0
     38618 WT3      429      TIP3     H1       HT       0.417000        1.0080           0
     38619 WT3      429      TIP3     H2       HT       0.417000        1.0080           0
     38620 WT3      430      TIP3     OH2      OT      -0.834000       15.9994           0
     38621 WT3      430      TIP3     H1       HT       0.417000        1.0080           0
     38622 WT3      430      TIP3     H2       HT       0.417000        1.0080           0
     38623 WT3      432      TIP3     OH2      OT      -0.834000       15.9994           0
     38624 WT3      432      TIP3     H1       HT       0.417000        1.0080           0
     38625 WT3      432      TIP3     H2       HT       0.417000        1.0080           0
     38626 WT3      434      TIP3     OH2      OT      -0.834000       15.9994           0
     38627 WT3      434      TIP3     H1       HT       0.417000        1.0080           0
     38628 WT3      434      TIP3     H2       HT       0.417000        1.0080           0
     38629 WT3      436      TIP3     OH2      OT      -0.834000       15.9994           0
     38630 WT3      436      TIP3     H1       HT       0.417000        1.0080           0
     38631 WT3      436      TIP3     H2       HT       0.417000        1.0080           0
     38632 WT3      438      TIP3     OH2      OT      -0.834000       15.9994           0
     38633 WT3      438      TIP3     H1       HT       0.417000        1.0080           0
     38634 WT3      438      TIP3     H2       HT       0.417000        1.0080           0
     38635 WT3      440      TIP3     OH2      OT      -0.834000       15.9994           0
     38636 WT3      440      TIP3     H1       HT       0.417000        1.0080           0
     38637 WT3      440      TIP3     H2       HT       0.417000        1.0080           0
     38638 WT3      441      TIP3     OH2      OT      -0.834000       15.9994           0
     38639 WT3      441      TIP3     H1       HT       0.417000        1.0080           0
     38640 WT3      441      TIP3     H2       HT       0.417000        1.0080           0
     38641 WT3      442      TIP3     OH2      OT      -0.834000       15.9994           0
     38642 WT3      442      TIP3     H1       HT       0.417000        1.0080           0
     38643 WT3      442      TIP3     H2       HT       0.417000        1.0080           0
     38644 WT3      443      TIP3     OH2      OT      -0.834000       15.9994           0
     38645 WT3      443      TIP3     H1       HT       0.417000        1.0080           0
     38646 WT3      443      TIP3     H2       HT       0.417000        1.0080           0
     38647 WT3      444      TIP3     OH2      OT      -0.834000       15.9994           0
     38648 WT3      444      TIP3     H1       HT       0.417000        1.0080           0
     38649 WT3      444      TIP3     H2       HT       0.417000        1.0080           0
     38650 WT3      447      TIP3     OH2      OT      -0.834000       15.9994           0
     38651 WT3      447      TIP3     H1       HT       0.417000        1.0080           0
     38652 WT3      447      TIP3     H2       HT       0.417000        1.0080           0
     38653 WT3      449      TIP3     OH2      OT      -0.834000       15.9994           0
     38654 WT3      449      TIP3     H1       HT       0.417000        1.0080           0
     38655 WT3      449      TIP3     H2       HT       0.417000        1.0080           0
     38656 WT3      450      TIP3     OH2      OT      -0.834000       15.9994           0
     38657 WT3      450      TIP3     H1       HT       0.417000        1.0080           0
     38658 WT3      450      TIP3     H2       HT       0.417000        1.0080           0
     38659 WT3      451      TIP3     OH2      OT      -0.834000       15.9994           0
     38660 WT3      451      TIP3     H1       HT       0.417000        1.0080           0
     38661 WT3      451      TIP3     H2       HT       0.417000        1.0080           0
     38662 WT3      452      TIP3     OH2      OT      -0.834000       15.9994           0
     38663 WT3      452      TIP3     H1       HT       0.417000        1.0080           0
     38664 WT3      452      TIP3     H2       HT       0.417000        1.0080           0
     38665 WT3      453      TIP3     OH2      OT      -0.834000       15.9994           0
     38666 WT3      453      TIP3     H1       HT       0.417000        1.0080           0
     38667 WT3      453      TIP3     H2       HT       0.417000        1.0080           0
     38668 WT3      455      TIP3     OH2      OT      -0.834000       15.9994           0
     38669 WT3      455      TIP3     H1       HT       0.417000        1.0080           0
     38670 WT3      455      TIP3     H2       HT       0.417000        1.0080           0
     38671 WT3      457      TIP3     OH2      OT      -0.834000       15.9994           0
     38672 WT3      457      TIP3     H1       HT       0.417000        1.0080           0
     38673 WT3      457      TIP3     H2       HT       0.417000        1.0080           0
     38674 WT3      458      TIP3     OH2      OT      -0.834000       15.9994           0
     38675 WT3      458      TIP3     H1       HT       0.417000        1.0080           0
     38676 WT3      458      TIP3     H2       HT       0.417000        1.0080           0
     38677 WT3      459      TIP3     OH2      OT      -0.834000       15.9994           0
     38678 WT3      459      TIP3     H1       HT       0.417000        1.0080           0
     38679 WT3      459      TIP3     H2       HT       0.417000        1.0080           0
     38680 WT3      461      TIP3     OH2      OT      -0.834000       15.9994           0
     38681 WT3      461      TIP3     H1       HT       0.417000        1.0080           0
     38682 WT3      461      TIP3     H2       HT       0.417000        1.0080           0
     38683 WT3      462      TIP3     OH2      OT      -0.834000       15.9994           0
     38684 WT3      462      TIP3     H1       HT       0.417000        1.0080           0
     38685 WT3      462      TIP3     H2       HT       0.417000        1.0080           0
     38686 WT3      463      TIP3     OH2      OT      -0.834000       15.9994           0
     38687 WT3      463      TIP3     H1       HT       0.417000        1.0080           0
     38688 WT3      463      TIP3     H2       HT       0.417000        1.0080           0
     38689 WT3      465      TIP3     OH2      OT      -0.834000       15.9994           0
     38690 WT3      465      TIP3     H1       HT       0.417000        1.0080           0
     38691 WT3      465      TIP3     H2       HT       0.417000        1.0080           0
     38692 WT3      466      TIP3     OH2      OT      -0.834000       15.9994           0
     38693 WT3      466      TIP3     H1       HT       0.417000        1.0080           0
     38694 WT3      466      TIP3     H2       HT       0.417000        1.0080           0
     38695 WT3      467      TIP3     OH2      OT      -0.834000       15.9994           0
     38696 WT3      467      TIP3     H1       HT       0.417000        1.0080           0
     38697 WT3      467      TIP3     H2       HT       0.417000        1.0080           0
     38698 WT3      469      TIP3     OH2      OT      -0.834000       15.9994           0
     38699 WT3      469      TIP3     H1       HT       0.417000        1.0080           0
     38700 WT3      469      TIP3     H2       HT       0.417000        1.0080           0
     38701 WT3      473      TIP3     OH2      OT      -0.834000       15.9994           0
     38702 WT3      473      TIP3     H1       HT       0.417000        1.0080           0
     38703 WT3      473      TIP3     H2       HT       0.417000        1.0080           0
     38704 WT3      474      TIP3     OH2      OT      -0.834000       15.9994           0
     38705 WT3      474      TIP3     H1       HT       0.417000        1.0080           0
     38706 WT3      474      TIP3     H2       HT       0.417000        1.0080           0
     38707 WT3      478      TIP3     OH2      OT      -0.834000       15.9994           0
     38708 WT3      478      TIP3     H1       HT       0.417000        1.0080           0
     38709 WT3      478      TIP3     H2       HT       0.417000        1.0080           0
     38710 WT3      479      TIP3     OH2      OT      -0.834000       15.9994           0
     38711 WT3      479      TIP3     H1       HT       0.417000        1.0080           0
     38712 WT3      479      TIP3     H2       HT       0.417000        1.0080           0
     38713 WT3      484      TIP3     OH2      OT      -0.834000       15.9994           0
     38714 WT3      484      TIP3     H1       HT       0.417000        1.0080           0
     38715 WT3      484      TIP3     H2       HT       0.417000        1.0080           0
     38716 WT3      485      TIP3     OH2      OT      -0.834000       15.9994           0
     38717 WT3      485      TIP3     H1       HT       0.417000        1.0080           0
     38718 WT3      485      TIP3     H2       HT       0.417000        1.0080           0
     38719 WT3      486      TIP3     OH2      OT      -0.834000       15.9994           0
     38720 WT3      486      TIP3     H1       HT       0.417000        1.0080           0
     38721 WT3      486      TIP3     H2       HT       0.417000        1.0080           0
     38722 WT3      487      TIP3     OH2      OT      -0.834000       15.9994           0
     38723 WT3      487      TIP3     H1       HT       0.417000        1.0080           0
     38724 WT3      487      TIP3     H2       HT       0.417000        1.0080           0
     38725 WT3      488      TIP3     OH2      OT      -0.834000       15.9994           0
     38726 WT3      488      TIP3     H1       HT       0.417000        1.0080           0
     38727 WT3      488      TIP3     H2       HT       0.417000        1.0080           0
     38728 WT3      489      TIP3     OH2      OT      -0.834000       15.9994           0
     38729 WT3      489      TIP3     H1       HT       0.417000        1.0080           0
     38730 WT3      489      TIP3     H2       HT       0.417000        1.0080           0
     38731 WT3      490      TIP3     OH2      OT      -0.834000       15.9994           0
     38732 WT3      490      TIP3     H1       HT       0.417000        1.0080           0
     38733 WT3      490      TIP3     H2       HT       0.417000        1.0080           0
     38734 WT3      491      TIP3     OH2      OT      -0.834000       15.9994           0
     38735 WT3      491      TIP3     H1       HT       0.417000        1.0080           0
     38736 WT3      491      TIP3     H2       HT       0.417000        1.0080           0
     38737 WT3      492      TIP3     OH2      OT      -0.834000       15.9994           0
     38738 WT3      492      TIP3     H1       HT       0.417000        1.0080           0
     38739 WT3      492      TIP3     H2       HT       0.417000        1.0080           0
     38740 WT3      493      TIP3     OH2      OT      -0.834000       15.9994           0
     38741 WT3      493      TIP3     H1       HT       0.417000        1.0080           0
     38742 WT3      493      TIP3     H2       HT       0.417000        1.0080           0
     38743 WT3      494      TIP3     OH2      OT      -0.834000       15.9994           0
     38744 WT3      494      TIP3     H1       HT       0.417000        1.0080           0
     38745 WT3      494      TIP3     H2       HT       0.417000        1.0080           0
     38746 WT3      495      TIP3     OH2      OT      -0.834000       15.9994           0
     38747 WT3      495      TIP3     H1       HT       0.417000        1.0080           0
     38748 WT3      495      TIP3     H2       HT       0.417000        1.0080           0
     38749 WT3      497      TIP3     OH2      OT      -0.834000       15.9994           0
     38750 WT3      497      TIP3     H1       HT       0.417000        1.0080           0
     38751 WT3      497      TIP3     H2       HT       0.417000        1.0080           0
     38752 WT3      498      TIP3     OH2      OT      -0.834000       15.9994           0
     38753 WT3      498      TIP3     H1       HT       0.417000        1.0080           0
     38754 WT3      498      TIP3     H2       HT       0.417000        1.0080           0
     38755 WT3      499      TIP3     OH2      OT      -0.834000       15.9994           0
     38756 WT3      499      TIP3     H1       HT       0.417000        1.0080           0
     38757 WT3      499      TIP3     H2       HT       0.417000        1.0080           0
     38758 WT3      500      TIP3     OH2      OT      -0.834000       15.9994           0
     38759 WT3      500      TIP3     H1       HT       0.417000        1.0080           0
     38760 WT3      500      TIP3     H2       HT       0.417000        1.0080           0
     38761 WT3      501      TIP3     OH2      OT      -0.834000       15.9994           0
     38762 WT3      501      TIP3     H1       HT       0.417000        1.0080           0
     38763 WT3      501      TIP3     H2       HT       0.417000        1.0080           0
     38764 WT3      502      TIP3     OH2      OT      -0.834000       15.9994           0
     38765 WT3      502      TIP3     H1       HT       0.417000        1.0080           0
     38766 WT3      502      TIP3     H2       HT       0.417000        1.0080           0
     38767 WT3      503      TIP3     OH2      OT      -0.834000       15.9994           0
     38768 WT3      503      TIP3     H1       HT       0.417000        1.0080           0
     38769 WT3      503      TIP3     H2       HT       0.417000        1.0080           0
     38770 WT3      504      TIP3     OH2      OT      -0.834000       15.9994           0
     38771 WT3      504      TIP3     H1       HT       0.417000        1.0080           0
     38772 WT3      504      TIP3     H2       HT       0.417000        1.0080           0
     38773 WT3      505      TIP3     OH2      OT      -0.834000       15.9994           0
     38774 WT3      505      TIP3     H1       HT       0.417000        1.0080           0
     38775 WT3      505      TIP3     H2       HT       0.417000        1.0080           0
     38776 WT3      506      TIP3     OH2      OT      -0.834000       15.9994           0
     38777 WT3      506      TIP3     H1       HT       0.417000        1.0080           0
     38778 WT3      506      TIP3     H2       HT       0.417000        1.0080           0
     38779 WT3      507      TIP3     OH2      OT      -0.834000       15.9994           0
     38780 WT3      507      TIP3     H1       HT       0.417000        1.0080           0
     38781 WT3      507      TIP3     H2       HT       0.417000        1.0080           0
     38782 WT3      508      TIP3     OH2      OT      -0.834000       15.9994           0
     38783 WT3      508      TIP3     H1       HT       0.417000        1.0080           0
     38784 WT3      508      TIP3     H2       HT       0.417000        1.0080           0
     38785 WT3      509      TIP3     OH2      OT      -0.834000       15.9994           0
     38786 WT3      509      TIP3     H1       HT       0.417000        1.0080           0
     38787 WT3      509      TIP3     H2       HT       0.417000        1.0080           0
     38788 WT3      510      TIP3     OH2      OT      -0.834000       15.9994           0
     38789 WT3      510      TIP3     H1       HT       0.417000        1.0080           0
     38790 WT3      510      TIP3     H2       HT       0.417000        1.0080           0
     38791 WT3      511      TIP3     OH2      OT      -0.834000       15.9994           0
     38792 WT3      511      TIP3     H1       HT       0.417000        1.0080           0
     38793 WT3      511      TIP3     H2       HT       0.417000        1.0080           0
     38794 WT3      512      TIP3     OH2      OT      -0.834000       15.9994           0
     38795 WT3      512      TIP3     H1       HT       0.417000        1.0080           0
     38796 WT3      512      TIP3     H2       HT       0.417000        1.0080           0
     38797 WT3      514      TIP3     OH2      OT      -0.834000       15.9994           0
     38798 WT3      514      TIP3     H1       HT       0.417000        1.0080           0
     38799 WT3      514      TIP3     H2       HT       0.417000        1.0080           0
     38800 WT3      515      TIP3     OH2      OT      -0.834000       15.9994           0
     38801 WT3      515      TIP3     H1       HT       0.417000        1.0080           0
     38802 WT3      515      TIP3     H2       HT       0.417000        1.0080           0
     38803 WT3      516      TIP3     OH2      OT      -0.834000       15.9994           0
     38804 WT3      516      TIP3     H1       HT       0.417000        1.0080           0
     38805 WT3      516      TIP3     H2       HT       0.417000        1.0080           0
     38806 WT3      517      TIP3     OH2      OT      -0.834000       15.9994           0
     38807 WT3      517      TIP3     H1       HT       0.417000        1.0080           0
     38808 WT3      517      TIP3     H2       HT       0.417000        1.0080           0
     38809 WT3      518      TIP3     OH2      OT      -0.834000       15.9994           0
     38810 WT3      518      TIP3     H1       HT       0.417000        1.0080           0
     38811 WT3      518      TIP3     H2       HT       0.417000        1.0080           0
     38812 WT3      519      TIP3     OH2      OT      -0.834000       15.9994           0
     38813 WT3      519      TIP3     H1       HT       0.417000        1.0080           0
     38814 WT3      519      TIP3     H2       HT       0.417000        1.0080           0
     38815 WT3      522      TIP3     OH2      OT      -0.834000       15.9994           0
     38816 WT3      522      TIP3     H1       HT       0.417000        1.0080           0
     38817 WT3      522      TIP3     H2       HT       0.417000        1.0080           0
     38818 WT3      523      TIP3     OH2      OT      -0.834000       15.9994           0
     38819 WT3      523      TIP3     H1       HT       0.417000        1.0080           0
     38820 WT3      523      TIP3     H2       HT       0.417000        1.0080           0
     38821 WT3      524      TIP3     OH2      OT      -0.834000       15.9994           0
     38822 WT3      524      TIP3     H1       HT       0.417000        1.0080           0
     38823 WT3      524      TIP3     H2       HT       0.417000        1.0080           0
     38824 WT3      525      TIP3     OH2      OT      -0.834000       15.9994           0
     38825 WT3      525      TIP3     H1       HT       0.417000        1.0080           0
     38826 WT3      525      TIP3     H2       HT       0.417000        1.0080           0
     38827 WT3      526      TIP3     OH2      OT      -0.834000       15.9994           0
     38828 WT3      526      TIP3     H1       HT       0.417000        1.0080           0
     38829 WT3      526      TIP3     H2       HT       0.417000        1.0080           0
     38830 WT3      527      TIP3     OH2      OT      -0.834000       15.9994           0
     38831 WT3      527      TIP3     H1       HT       0.417000        1.0080           0
     38832 WT3      527      TIP3     H2       HT       0.417000        1.0080           0
     38833 WT3      528      TIP3     OH2      OT      -0.834000       15.9994           0
     38834 WT3      528      TIP3     H1       HT       0.417000        1.0080           0
     38835 WT3      528      TIP3     H2       HT       0.417000        1.0080           0
     38836 WT3      530      TIP3     OH2      OT      -0.834000       15.9994           0
     38837 WT3      530      TIP3     H1       HT       0.417000        1.0080           0
     38838 WT3      530      TIP3     H2       HT       0.417000        1.0080           0
     38839 WT3      532      TIP3     OH2      OT      -0.834000       15.9994           0
     38840 WT3      532      TIP3     H1       HT       0.417000        1.0080           0
     38841 WT3      532      TIP3     H2       HT       0.417000        1.0080           0
     38842 WT3      533      TIP3     OH2      OT      -0.834000       15.9994           0
     38843 WT3      533      TIP3     H1       HT       0.417000        1.0080           0
     38844 WT3      533      TIP3     H2       HT       0.417000        1.0080           0
     38845 WT3      534      TIP3     OH2      OT      -0.834000       15.9994           0
     38846 WT3      534      TIP3     H1       HT       0.417000        1.0080           0
     38847 WT3      534      TIP3     H2       HT       0.417000        1.0080           0
     38848 WT3      535      TIP3     OH2      OT      -0.834000       15.9994           0
     38849 WT3      535      TIP3     H1       HT       0.417000        1.0080           0
     38850 WT3      535      TIP3     H2       HT       0.417000        1.0080           0
     38851 WT3      536      TIP3     OH2      OT      -0.834000       15.9994           0
     38852 WT3      536      TIP3     H1       HT       0.417000        1.0080           0
     38853 WT3      536      TIP3     H2       HT       0.417000        1.0080           0
     38854 WT3      538      TIP3     OH2      OT      -0.834000       15.9994           0
     38855 WT3      538      TIP3     H1       HT       0.417000        1.0080           0
     38856 WT3      538      TIP3     H2       HT       0.417000        1.0080           0
     38857 WT3      539      TIP3     OH2      OT      -0.834000       15.9994           0
     38858 WT3      539      TIP3     H1       HT       0.417000        1.0080           0
     38859 WT3      539      TIP3     H2       HT       0.417000        1.0080           0
     38860 WT3      540      TIP3     OH2      OT      -0.834000       15.9994           0
     38861 WT3      540      TIP3     H1       HT       0.417000        1.0080           0
     38862 WT3      540      TIP3     H2       HT       0.417000        1.0080           0
     38863 WT3      541      TIP3     OH2      OT      -0.834000       15.9994           0
     38864 WT3      541      TIP3     H1       HT       0.417000        1.0080           0
     38865 WT3      541      TIP3     H2       HT       0.417000        1.0080           0
     38866 WT3      543      TIP3     OH2      OT      -0.834000       15.9994           0
     38867 WT3      543      TIP3     H1       HT       0.417000        1.0080           0
     38868 WT3      543      TIP3     H2       HT       0.417000        1.0080           0
     38869 WT3      544      TIP3     OH2      OT      -0.834000       15.9994           0
     38870 WT3      544      TIP3     H1       HT       0.417000        1.0080           0
     38871 WT3      544      TIP3     H2       HT       0.417000        1.0080           0
     38872 WT3      546      TIP3     OH2      OT      -0.834000       15.9994           0
     38873 WT3      546      TIP3     H1       HT       0.417000        1.0080           0
     38874 WT3      546      TIP3     H2       HT       0.417000        1.0080           0
     38875 WT3      549      TIP3     OH2      OT      -0.834000       15.9994           0
     38876 WT3      549      TIP3     H1       HT       0.417000        1.0080           0
     38877 WT3      549      TIP3     H2       HT       0.417000        1.0080           0
     38878 WT3      550      TIP3     OH2      OT      -0.834000       15.9994           0
     38879 WT3      550      TIP3     H1       HT       0.417000        1.0080           0
     38880 WT3      550      TIP3     H2       HT       0.417000        1.0080           0
     38881 WT3      552      TIP3     OH2      OT      -0.834000       15.9994           0
     38882 WT3      552      TIP3     H1       HT       0.417000        1.0080           0
     38883 WT3      552      TIP3     H2       HT       0.417000        1.0080           0
     38884 WT3      553      TIP3     OH2      OT      -0.834000       15.9994           0
     38885 WT3      553      TIP3     H1       HT       0.417000        1.0080           0
     38886 WT3      553      TIP3     H2       HT       0.417000        1.0080           0
     38887 WT3      554      TIP3     OH2      OT      -0.834000       15.9994           0
     38888 WT3      554      TIP3     H1       HT       0.417000        1.0080           0
     38889 WT3      554      TIP3     H2       HT       0.417000        1.0080           0
     38890 WT3      555      TIP3     OH2      OT      -0.834000       15.9994           0
     38891 WT3      555      TIP3     H1       HT       0.417000        1.0080           0
     38892 WT3      555      TIP3     H2       HT       0.417000        1.0080           0
     38893 WT3      558      TIP3     OH2      OT      -0.834000       15.9994           0
     38894 WT3      558      TIP3     H1       HT       0.417000        1.0080           0
     38895 WT3      558      TIP3     H2       HT       0.417000        1.0080           0
     38896 WT3      559      TIP3     OH2      OT      -0.834000       15.9994           0
     38897 WT3      559      TIP3     H1       HT       0.417000        1.0080           0
     38898 WT3      559      TIP3     H2       HT       0.417000        1.0080           0
     38899 WT3      560      TIP3     OH2      OT      -0.834000       15.9994           0
     38900 WT3      560      TIP3     H1       HT       0.417000        1.0080           0
     38901 WT3      560      TIP3     H2       HT       0.417000        1.0080           0
     38902 WT3      561      TIP3     OH2      OT      -0.834000       15.9994           0
     38903 WT3      561      TIP3     H1       HT       0.417000        1.0080           0
     38904 WT3      561      TIP3     H2       HT       0.417000        1.0080           0
     38905 WT3      562      TIP3     OH2      OT      -0.834000       15.9994           0
     38906 WT3      562      TIP3     H1       HT       0.417000        1.0080           0
     38907 WT3      562      TIP3     H2       HT       0.417000        1.0080           0
     38908 WT3      563      TIP3     OH2      OT      -0.834000       15.9994           0
     38909 WT3      563      TIP3     H1       HT       0.417000        1.0080           0
     38910 WT3      563      TIP3     H2       HT       0.417000        1.0080           0
     38911 WT3      565      TIP3     OH2      OT      -0.834000       15.9994           0
     38912 WT3      565      TIP3     H1       HT       0.417000        1.0080           0
     38913 WT3      565      TIP3     H2       HT       0.417000        1.0080           0
     38914 WT3      568      TIP3     OH2      OT      -0.834000       15.9994           0
     38915 WT3      568      TIP3     H1       HT       0.417000        1.0080           0
     38916 WT3      568      TIP3     H2       HT       0.417000        1.0080           0
     38917 WT3      569      TIP3     OH2      OT      -0.834000       15.9994           0
     38918 WT3      569      TIP3     H1       HT       0.417000        1.0080           0
     38919 WT3      569      TIP3     H2       HT       0.417000        1.0080           0
     38920 WT3      571      TIP3     OH2      OT      -0.834000       15.9994           0
     38921 WT3      571      TIP3     H1       HT       0.417000        1.0080           0
     38922 WT3      571      TIP3     H2       HT       0.417000        1.0080           0
     38923 WT3      574      TIP3     OH2      OT      -0.834000       15.9994           0
     38924 WT3      574      TIP3     H1       HT       0.417000        1.0080           0
     38925 WT3      574      TIP3     H2       HT       0.417000        1.0080           0
     38926 WT3      575      TIP3     OH2      OT      -0.834000       15.9994           0
     38927 WT3      575      TIP3     H1       HT       0.417000        1.0080           0
     38928 WT3      575      TIP3     H2       HT       0.417000        1.0080           0
     38929 WT3      579      TIP3     OH2      OT      -0.834000       15.9994           0
     38930 WT3      579      TIP3     H1       HT       0.417000        1.0080           0
     38931 WT3      579      TIP3     H2       HT       0.417000        1.0080           0
     38932 WT3      580      TIP3     OH2      OT      -0.834000       15.9994           0
     38933 WT3      580      TIP3     H1       HT       0.417000        1.0080           0
     38934 WT3      580      TIP3     H2       HT       0.417000        1.0080           0
     38935 WT3      581      TIP3     OH2      OT      -0.834000       15.9994           0
     38936 WT3      581      TIP3     H1       HT       0.417000        1.0080           0
     38937 WT3      581      TIP3     H2       HT       0.417000        1.0080           0
     38938 WT3      582      TIP3     OH2      OT      -0.834000       15.9994           0
     38939 WT3      582      TIP3     H1       HT       0.417000        1.0080           0
     38940 WT3      582      TIP3     H2       HT       0.417000        1.0080           0
     38941 WT3      583      TIP3     OH2      OT      -0.834000       15.9994           0
     38942 WT3      583      TIP3     H1       HT       0.417000        1.0080           0
     38943 WT3      583      TIP3     H2       HT       0.417000        1.0080           0
     38944 WT3      584      TIP3     OH2      OT      -0.834000       15.9994           0
     38945 WT3      584      TIP3     H1       HT       0.417000        1.0080           0
     38946 WT3      584      TIP3     H2       HT       0.417000        1.0080           0
     38947 WT3      585      TIP3     OH2      OT      -0.834000       15.9994           0
     38948 WT3      585      TIP3     H1       HT       0.417000        1.0080           0
     38949 WT3      585      TIP3     H2       HT       0.417000        1.0080           0
     38950 WT3      586      TIP3     OH2      OT      -0.834000       15.9994           0
     38951 WT3      586      TIP3     H1       HT       0.417000        1.0080           0
     38952 WT3      586      TIP3     H2       HT       0.417000        1.0080           0
     38953 WT3      587      TIP3     OH2      OT      -0.834000       15.9994           0
     38954 WT3      587      TIP3     H1       HT       0.417000        1.0080           0
     38955 WT3      587      TIP3     H2       HT       0.417000        1.0080           0
     38956 WT3      594      TIP3     OH2      OT      -0.834000       15.9994           0
     38957 WT3      594      TIP3     H1       HT       0.417000        1.0080           0
     38958 WT3      594      TIP3     H2       HT       0.417000        1.0080           0
     38959 WT3      595      TIP3     OH2      OT      -0.834000       15.9994           0
     38960 WT3      595      TIP3     H1       HT       0.417000        1.0080           0
     38961 WT3      595      TIP3     H2       HT       0.417000        1.0080           0
     38962 WT3      597      TIP3     OH2      OT      -0.834000       15.9994           0
     38963 WT3      597      TIP3     H1       HT       0.417000        1.0080           0
     38964 WT3      597      TIP3     H2       HT       0.417000        1.0080           0
     38965 WT3      599      TIP3     OH2      OT      -0.834000       15.9994           0
     38966 WT3      599      TIP3     H1       HT       0.417000        1.0080           0
     38967 WT3      599      TIP3     H2       HT       0.417000        1.0080           0
     38968 WT3      601      TIP3     OH2      OT      -0.834000       15.9994           0
     38969 WT3      601      TIP3     H1       HT       0.417000        1.0080           0
     38970 WT3      601      TIP3     H2       HT       0.417000        1.0080           0
     38971 WT3      602      TIP3     OH2      OT      -0.834000       15.9994           0
     38972 WT3      602      TIP3     H1       HT       0.417000        1.0080           0
     38973 WT3      602      TIP3     H2       HT       0.417000        1.0080           0
     38974 WT3      603      TIP3     OH2      OT      -0.834000       15.9994           0
     38975 WT3      603      TIP3     H1       HT       0.417000        1.0080           0
     38976 WT3      603      TIP3     H2       HT       0.417000        1.0080           0
     38977 WT3      604      TIP3     OH2      OT      -0.834000       15.9994           0
     38978 WT3      604      TIP3     H1       HT       0.417000        1.0080           0
     38979 WT3      604      TIP3     H2       HT       0.417000        1.0080           0
     38980 WT3      605      TIP3     OH2      OT      -0.834000       15.9994           0
     38981 WT3      605      TIP3     H1       HT       0.417000        1.0080           0
     38982 WT3      605      TIP3     H2       HT       0.417000        1.0080           0
     38983 WT3      606      TIP3     OH2      OT      -0.834000       15.9994           0
     38984 WT3      606      TIP3     H1       HT       0.417000        1.0080           0
     38985 WT3      606      TIP3     H2       HT       0.417000        1.0080           0
     38986 WT3      609      TIP3     OH2      OT      -0.834000       15.9994           0
     38987 WT3      609      TIP3     H1       HT       0.417000        1.0080           0
     38988 WT3      609      TIP3     H2       HT       0.417000        1.0080           0
     38989 WT3      612      TIP3     OH2      OT      -0.834000       15.9994           0
     38990 WT3      612      TIP3     H1       HT       0.417000        1.0080           0
     38991 WT3      612      TIP3     H2       HT       0.417000        1.0080           0
     38992 WT3      613      TIP3     OH2      OT      -0.834000       15.9994           0
     38993 WT3      613      TIP3     H1       HT       0.417000        1.0080           0
     38994 WT3      613      TIP3     H2       HT       0.417000        1.0080           0
     38995 WT3      617      TIP3     OH2      OT      -0.834000       15.9994           0
     38996 WT3      617      TIP3     H1       HT       0.417000        1.0080           0
     38997 WT3      617      TIP3     H2       HT       0.417000        1.0080           0
     38998 WT3      618      TIP3     OH2      OT      -0.834000       15.9994           0
     38999 WT3      618      TIP3     H1       HT       0.417000        1.0080           0
     39000 WT3      618      TIP3     H2       HT       0.417000        1.0080           0
     39001 WT3      621      TIP3     OH2      OT      -0.834000       15.9994           0
     39002 WT3      621      TIP3     H1       HT       0.417000        1.0080           0
     39003 WT3      621      TIP3     H2       HT       0.417000        1.0080           0
     39004 WT3      623      TIP3     OH2      OT      -0.834000       15.9994           0
     39005 WT3      623      TIP3     H1       HT       0.417000        1.0080           0
     39006 WT3      623      TIP3     H2       HT       0.417000        1.0080           0
     39007 WT3      625      TIP3     OH2      OT      -0.834000       15.9994           0
     39008 WT3      625      TIP3     H1       HT       0.417000        1.0080           0
     39009 WT3      625      TIP3     H2       HT       0.417000        1.0080           0
     39010 WT3      626      TIP3     OH2      OT      -0.834000       15.9994           0
     39011 WT3      626      TIP3     H1       HT       0.417000        1.0080           0
     39012 WT3      626      TIP3     H2       HT       0.417000        1.0080           0
     39013 WT3      628      TIP3     OH2      OT      -0.834000       15.9994           0
     39014 WT3      628      TIP3     H1       HT       0.417000        1.0080           0
     39015 WT3      628      TIP3     H2       HT       0.417000        1.0080           0
     39016 WT3      632      TIP3     OH2      OT      -0.834000       15.9994           0
     39017 WT3      632      TIP3     H1       HT       0.417000        1.0080           0
     39018 WT3      632      TIP3     H2       HT       0.417000        1.0080           0
     39019 WT3      634      TIP3     OH2      OT      -0.834000       15.9994           0
     39020 WT3      634      TIP3     H1       HT       0.417000        1.0080           0
     39021 WT3      634      TIP3     H2       HT       0.417000        1.0080           0
     39022 WT3      640      TIP3     OH2      OT      -0.834000       15.9994           0
     39023 WT3      640      TIP3     H1       HT       0.417000        1.0080           0
     39024 WT3      640      TIP3     H2       HT       0.417000        1.0080           0
     39025 WT3      644      TIP3     OH2      OT      -0.834000       15.9994           0
     39026 WT3      644      TIP3     H1       HT       0.417000        1.0080           0
     39027 WT3      644      TIP3     H2       HT       0.417000        1.0080           0
     39028 WT3      647      TIP3     OH2      OT      -0.834000       15.9994           0
     39029 WT3      647      TIP3     H1       HT       0.417000        1.0080           0
     39030 WT3      647      TIP3     H2       HT       0.417000        1.0080           0
     39031 WT3      648      TIP3     OH2      OT      -0.834000       15.9994           0
     39032 WT3      648      TIP3     H1       HT       0.417000        1.0080           0
     39033 WT3      648      TIP3     H2       HT       0.417000        1.0080           0
     39034 WT3      650      TIP3     OH2      OT      -0.834000       15.9994           0
     39035 WT3      650      TIP3     H1       HT       0.417000        1.0080           0
     39036 WT3      650      TIP3     H2       HT       0.417000        1.0080           0
     39037 WT3      659      TIP3     OH2      OT      -0.834000       15.9994           0
     39038 WT3      659      TIP3     H1       HT       0.417000        1.0080           0
     39039 WT3      659      TIP3     H2       HT       0.417000        1.0080           0
     39040 WT3      662      TIP3     OH2      OT      -0.834000       15.9994           0
     39041 WT3      662      TIP3     H1       HT       0.417000        1.0080           0
     39042 WT3      662      TIP3     H2       HT       0.417000        1.0080           0
     39043 WT3      758      TIP3     OH2      OT      -0.834000       15.9994           0
     39044 WT3      758      TIP3     H1       HT       0.417000        1.0080           0
     39045 WT3      758      TIP3     H2       HT       0.417000        1.0080           0
     39046 WT3      805      TIP3     OH2      OT      -0.834000       15.9994           0
     39047 WT3      805      TIP3     H1       HT       0.417000        1.0080           0
     39048 WT3      805      TIP3     H2       HT       0.417000        1.0080           0
     39049 WT3      821      TIP3     OH2      OT      -0.834000       15.9994           0
     39050 WT3      821      TIP3     H1       HT       0.417000        1.0080           0
     39051 WT3      821      TIP3     H2       HT       0.417000        1.0080           0
     39052 WT3      822      TIP3     OH2      OT      -0.834000       15.9994           0
     39053 WT3      822      TIP3     H1       HT       0.417000        1.0080           0
     39054 WT3      822      TIP3     H2       HT       0.417000        1.0080           0
     39055 WT3      825      TIP3     OH2      OT      -0.834000       15.9994           0
     39056 WT3      825      TIP3     H1       HT       0.417000        1.0080           0
     39057 WT3      825      TIP3     H2       HT       0.417000        1.0080           0
     39058 WT3      835      TIP3     OH2      OT      -0.834000       15.9994           0
     39059 WT3      835      TIP3     H1       HT       0.417000        1.0080           0
     39060 WT3      835      TIP3     H2       HT       0.417000        1.0080           0
     39061 WT3      836      TIP3     OH2      OT      -0.834000       15.9994           0
     39062 WT3      836      TIP3     H1       HT       0.417000        1.0080           0
     39063 WT3      836      TIP3     H2       HT       0.417000        1.0080           0
     39064 WT3      848      TIP3     OH2      OT      -0.834000       15.9994           0
     39065 WT3      848      TIP3     H1       HT       0.417000        1.0080           0
     39066 WT3      848      TIP3     H2       HT       0.417000        1.0080           0
     39067 WT3      849      TIP3     OH2      OT      -0.834000       15.9994           0
     39068 WT3      849      TIP3     H1       HT       0.417000        1.0080           0
     39069 WT3      849      TIP3     H2       HT       0.417000        1.0080           0
     39070 WT3      852      TIP3     OH2      OT      -0.834000       15.9994           0
     39071 WT3      852      TIP3     H1       HT       0.417000        1.0080           0
     39072 WT3      852      TIP3     H2       HT       0.417000        1.0080           0
     39073 WT3      854      TIP3     OH2      OT      -0.834000       15.9994           0
     39074 WT3      854      TIP3     H1       HT       0.417000        1.0080           0
     39075 WT3      854      TIP3     H2       HT       0.417000        1.0080           0
     39076 WT3      855      TIP3     OH2      OT      -0.834000       15.9994           0
     39077 WT3      855      TIP3     H1       HT       0.417000        1.0080           0
     39078 WT3      855      TIP3     H2       HT       0.417000        1.0080           0
     39079 WT3      858      TIP3     OH2      OT      -0.834000       15.9994           0
     39080 WT3      858      TIP3     H1       HT       0.417000        1.0080           0
     39081 WT3      858      TIP3     H2       HT       0.417000        1.0080           0
     39082 WT3      860      TIP3     OH2      OT      -0.834000       15.9994           0
     39083 WT3      860      TIP3     H1       HT       0.417000        1.0080           0
     39084 WT3      860      TIP3     H2       HT       0.417000        1.0080           0
     39085 WT3      866      TIP3     OH2      OT      -0.834000       15.9994           0
     39086 WT3      866      TIP3     H1       HT       0.417000        1.0080           0
     39087 WT3      866      TIP3     H2       HT       0.417000        1.0080           0
     39088 WT3      867      TIP3     OH2      OT      -0.834000       15.9994           0
     39089 WT3      867      TIP3     H1       HT       0.417000        1.0080           0
     39090 WT3      867      TIP3     H2       HT       0.417000        1.0080           0
     39091 WT3      879      TIP3     OH2      OT      -0.834000       15.9994           0
     39092 WT3      879      TIP3     H1       HT       0.417000        1.0080           0
     39093 WT3      879      TIP3     H2       HT       0.417000        1.0080           0
     39094 WT3      881      TIP3     OH2      OT      -0.834000       15.9994           0
     39095 WT3      881      TIP3     H1       HT       0.417000        1.0080           0
     39096 WT3      881      TIP3     H2       HT       0.417000        1.0080           0
     39097 WT3      882      TIP3     OH2      OT      -0.834000       15.9994           0
     39098 WT3      882      TIP3     H1       HT       0.417000        1.0080           0
     39099 WT3      882      TIP3     H2       HT       0.417000        1.0080           0
     39100 WT3      886      TIP3     OH2      OT      -0.834000       15.9994           0
     39101 WT3      886      TIP3     H1       HT       0.417000        1.0080           0
     39102 WT3      886      TIP3     H2       HT       0.417000        1.0080           0
     39103 WT3      887      TIP3     OH2      OT      -0.834000       15.9994           0
     39104 WT3      887      TIP3     H1       HT       0.417000        1.0080           0
     39105 WT3      887      TIP3     H2       HT       0.417000        1.0080           0
     39106 WT3      889      TIP3     OH2      OT      -0.834000       15.9994           0
     39107 WT3      889      TIP3     H1       HT       0.417000        1.0080           0
     39108 WT3      889      TIP3     H2       HT       0.417000        1.0080           0
     39109 WT3      890      TIP3     OH2      OT      -0.834000       15.9994           0
     39110 WT3      890      TIP3     H1       HT       0.417000        1.0080           0
     39111 WT3      890      TIP3     H2       HT       0.417000        1.0080           0
     39112 WT3      891      TIP3     OH2      OT      -0.834000       15.9994           0
     39113 WT3      891      TIP3     H1       HT       0.417000        1.0080           0
     39114 WT3      891      TIP3     H2       HT       0.417000        1.0080           0
     39115 WT3      894      TIP3     OH2      OT      -0.834000       15.9994           0
     39116 WT3      894      TIP3     H1       HT       0.417000        1.0080           0
     39117 WT3      894      TIP3     H2       HT       0.417000        1.0080           0
     39118 WT3      895      TIP3     OH2      OT      -0.834000       15.9994           0
     39119 WT3      895      TIP3     H1       HT       0.417000        1.0080           0
     39120 WT3      895      TIP3     H2       HT       0.417000        1.0080           0
     39121 WT3      896      TIP3     OH2      OT      -0.834000       15.9994           0
     39122 WT3      896      TIP3     H1       HT       0.417000        1.0080           0
     39123 WT3      896      TIP3     H2       HT       0.417000        1.0080           0
     39124 WT3      897      TIP3     OH2      OT      -0.834000       15.9994           0
     39125 WT3      897      TIP3     H1       HT       0.417000        1.0080           0
     39126 WT3      897      TIP3     H2       HT       0.417000        1.0080           0
     39127 WT3      899      TIP3     OH2      OT      -0.834000       15.9994           0
     39128 WT3      899      TIP3     H1       HT       0.417000        1.0080           0
     39129 WT3      899      TIP3     H2       HT       0.417000        1.0080           0
     39130 WT3      903      TIP3     OH2      OT      -0.834000       15.9994           0
     39131 WT3      903      TIP3     H1       HT       0.417000        1.0080           0
     39132 WT3      903      TIP3     H2       HT       0.417000        1.0080           0
     39133 WT3      906      TIP3     OH2      OT      -0.834000       15.9994           0
     39134 WT3      906      TIP3     H1       HT       0.417000        1.0080           0
     39135 WT3      906      TIP3     H2       HT       0.417000        1.0080           0
     39136 WT3      907      TIP3     OH2      OT      -0.834000       15.9994           0
     39137 WT3      907      TIP3     H1       HT       0.417000        1.0080           0
     39138 WT3      907      TIP3     H2       HT       0.417000        1.0080           0
     39139 WT3      908      TIP3     OH2      OT      -0.834000       15.9994           0
     39140 WT3      908      TIP3     H1       HT       0.417000        1.0080           0
     39141 WT3      908      TIP3     H2       HT       0.417000        1.0080           0
     39142 WT3      911      TIP3     OH2      OT      -0.834000       15.9994           0
     39143 WT3      911      TIP3     H1       HT       0.417000        1.0080           0
     39144 WT3      911      TIP3     H2       HT       0.417000        1.0080           0
     39145 WT3      912      TIP3     OH2      OT      -0.834000       15.9994           0
     39146 WT3      912      TIP3     H1       HT       0.417000        1.0080           0
     39147 WT3      912      TIP3     H2       HT       0.417000        1.0080           0
     39148 WT3      916      TIP3     OH2      OT      -0.834000       15.9994           0
     39149 WT3      916      TIP3     H1       HT       0.417000        1.0080           0
     39150 WT3      916      TIP3     H2       HT       0.417000        1.0080           0
     39151 WT3      917      TIP3     OH2      OT      -0.834000       15.9994           0
     39152 WT3      917      TIP3     H1       HT       0.417000        1.0080           0
     39153 WT3      917      TIP3     H2       HT       0.417000        1.0080           0
     39154 WT3      918      TIP3     OH2      OT      -0.834000       15.9994           0
     39155 WT3      918      TIP3     H1       HT       0.417000        1.0080           0
     39156 WT3      918      TIP3     H2       HT       0.417000        1.0080           0
     39157 WT3      919      TIP3     OH2      OT      -0.834000       15.9994           0
     39158 WT3      919      TIP3     H1       HT       0.417000        1.0080           0
     39159 WT3      919      TIP3     H2       HT       0.417000        1.0080           0
     39160 WT3      921      TIP3     OH2      OT      -0.834000       15.9994           0
     39161 WT3      921      TIP3     H1       HT       0.417000        1.0080           0
     39162 WT3      921      TIP3     H2       HT       0.417000        1.0080           0
     39163 WT3      924      TIP3     OH2      OT      -0.834000       15.9994           0
     39164 WT3      924      TIP3     H1       HT       0.417000        1.0080           0
     39165 WT3      924      TIP3     H2       HT       0.417000        1.0080           0
     39166 WT3      927      TIP3     OH2      OT      -0.834000       15.9994           0
     39167 WT3      927      TIP3     H1       HT       0.417000        1.0080           0
     39168 WT3      927      TIP3     H2       HT       0.417000        1.0080           0
     39169 WT3      928      TIP3     OH2      OT      -0.834000       15.9994           0
     39170 WT3      928      TIP3     H1       HT       0.417000        1.0080           0
     39171 WT3      928      TIP3     H2       HT       0.417000        1.0080           0
     39172 WT3      929      TIP3     OH2      OT      -0.834000       15.9994           0
     39173 WT3      929      TIP3     H1       HT       0.417000        1.0080           0
     39174 WT3      929      TIP3     H2       HT       0.417000        1.0080           0
     39175 WT3      930      TIP3     OH2      OT      -0.834000       15.9994           0
     39176 WT3      930      TIP3     H1       HT       0.417000        1.0080           0
     39177 WT3      930      TIP3     H2       HT       0.417000        1.0080           0
     39178 WT3      932      TIP3     OH2      OT      -0.834000       15.9994           0
     39179 WT3      932      TIP3     H1       HT       0.417000        1.0080           0
     39180 WT3      932      TIP3     H2       HT       0.417000        1.0080           0
     39181 WT3      933      TIP3     OH2      OT      -0.834000       15.9994           0
     39182 WT3      933      TIP3     H1       HT       0.417000        1.0080           0
     39183 WT3      933      TIP3     H2       HT       0.417000        1.0080           0
     39184 WT3      936      TIP3     OH2      OT      -0.834000       15.9994           0
     39185 WT3      936      TIP3     H1       HT       0.417000        1.0080           0
     39186 WT3      936      TIP3     H2       HT       0.417000        1.0080           0
     39187 WT3      937      TIP3     OH2      OT      -0.834000       15.9994           0
     39188 WT3      937      TIP3     H1       HT       0.417000        1.0080           0
     39189 WT3      937      TIP3     H2       HT       0.417000        1.0080           0
     39190 WT3      938      TIP3     OH2      OT      -0.834000       15.9994           0
     39191 WT3      938      TIP3     H1       HT       0.417000        1.0080           0
     39192 WT3      938      TIP3     H2       HT       0.417000        1.0080           0
     39193 WT3      939      TIP3     OH2      OT      -0.834000       15.9994           0
     39194 WT3      939      TIP3     H1       HT       0.417000        1.0080           0
     39195 WT3      939      TIP3     H2       HT       0.417000        1.0080           0
     39196 WT3      940      TIP3     OH2      OT      -0.834000       15.9994           0
     39197 WT3      940      TIP3     H1       HT       0.417000        1.0080           0
     39198 WT3      940      TIP3     H2       HT       0.417000        1.0080           0
     39199 WT3      941      TIP3     OH2      OT      -0.834000       15.9994           0
     39200 WT3      941      TIP3     H1       HT       0.417000        1.0080           0
     39201 WT3      941      TIP3     H2       HT       0.417000        1.0080           0
     39202 WT3      942      TIP3     OH2      OT      -0.834000       15.9994           0
     39203 WT3      942      TIP3     H1       HT       0.417000        1.0080           0
     39204 WT3      942      TIP3     H2       HT       0.417000        1.0080           0
     39205 WT3      944      TIP3     OH2      OT      -0.834000       15.9994           0
     39206 WT3      944      TIP3     H1       HT       0.417000        1.0080           0
     39207 WT3      944      TIP3     H2       HT       0.417000        1.0080           0
     39208 WT3      946      TIP3     OH2      OT      -0.834000       15.9994           0
     39209 WT3      946      TIP3     H1       HT       0.417000        1.0080           0
     39210 WT3      946      TIP3     H2       HT       0.417000        1.0080           0
     39211 WT3      947      TIP3     OH2      OT      -0.834000       15.9994           0
     39212 WT3      947      TIP3     H1       HT       0.417000        1.0080           0
     39213 WT3      947      TIP3     H2       HT       0.417000        1.0080           0
     39214 WT3      948      TIP3     OH2      OT      -0.834000       15.9994           0
     39215 WT3      948      TIP3     H1       HT       0.417000        1.0080           0
     39216 WT3      948      TIP3     H2       HT       0.417000        1.0080           0
     39217 WT3      949      TIP3     OH2      OT      -0.834000       15.9994           0
     39218 WT3      949      TIP3     H1       HT       0.417000        1.0080           0
     39219 WT3      949      TIP3     H2       HT       0.417000        1.0080           0
     39220 WT3      950      TIP3     OH2      OT      -0.834000       15.9994           0
     39221 WT3      950      TIP3     H1       HT       0.417000        1.0080           0
     39222 WT3      950      TIP3     H2       HT       0.417000        1.0080           0
     39223 WT3      951      TIP3     OH2      OT      -0.834000       15.9994           0
     39224 WT3      951      TIP3     H1       HT       0.417000        1.0080           0
     39225 WT3      951      TIP3     H2       HT       0.417000        1.0080           0
     39226 WT3      952      TIP3     OH2      OT      -0.834000       15.9994           0
     39227 WT3      952      TIP3     H1       HT       0.417000        1.0080           0
     39228 WT3      952      TIP3     H2       HT       0.417000        1.0080           0
     39229 WT3      953      TIP3     OH2      OT      -0.834000       15.9994           0
     39230 WT3      953      TIP3     H1       HT       0.417000        1.0080           0
     39231 WT3      953      TIP3     H2       HT       0.417000        1.0080           0
     39232 WT3      954      TIP3     OH2      OT      -0.834000       15.9994           0
     39233 WT3      954      TIP3     H1       HT       0.417000        1.0080           0
     39234 WT3      954      TIP3     H2       HT       0.417000        1.0080           0
     39235 WT3      956      TIP3     OH2      OT      -0.834000       15.9994           0
     39236 WT3      956      TIP3     H1       HT       0.417000        1.0080           0
     39237 WT3      956      TIP3     H2       HT       0.417000        1.0080           0
     39238 WT3      957      TIP3     OH2      OT      -0.834000       15.9994           0
     39239 WT3      957      TIP3     H1       HT       0.417000        1.0080           0
     39240 WT3      957      TIP3     H2       HT       0.417000        1.0080           0
     39241 WT3      958      TIP3     OH2      OT      -0.834000       15.9994           0
     39242 WT3      958      TIP3     H1       HT       0.417000        1.0080           0
     39243 WT3      958      TIP3     H2       HT       0.417000        1.0080           0
     39244 WT3      959      TIP3     OH2      OT      -0.834000       15.9994           0
     39245 WT3      959      TIP3     H1       HT       0.417000        1.0080           0
     39246 WT3      959      TIP3     H2       HT       0.417000        1.0080           0
     39247 WT3      960      TIP3     OH2      OT      -0.834000       15.9994           0
     39248 WT3      960      TIP3     H1       HT       0.417000        1.0080           0
     39249 WT3      960      TIP3     H2       HT       0.417000        1.0080           0
     39250 WT3      961      TIP3     OH2      OT      -0.834000       15.9994           0
     39251 WT3      961      TIP3     H1       HT       0.417000        1.0080           0
     39252 WT3      961      TIP3     H2       HT       0.417000        1.0080           0
     39253 WT3      962      TIP3     OH2      OT      -0.834000       15.9994           0
     39254 WT3      962      TIP3     H1       HT       0.417000        1.0080           0
     39255 WT3      962      TIP3     H2       HT       0.417000        1.0080           0
     39256 WT3      963      TIP3     OH2      OT      -0.834000       15.9994           0
     39257 WT3      963      TIP3     H1       HT       0.417000        1.0080           0
     39258 WT3      963      TIP3     H2       HT       0.417000        1.0080           0
     39259 WT3      964      TIP3     OH2      OT      -0.834000       15.9994           0
     39260 WT3      964      TIP3     H1       HT       0.417000        1.0080           0
     39261 WT3      964      TIP3     H2       HT       0.417000        1.0080           0
     39262 WT3      965      TIP3     OH2      OT      -0.834000       15.9994           0
     39263 WT3      965      TIP3     H1       HT       0.417000        1.0080           0
     39264 WT3      965      TIP3     H2       HT       0.417000        1.0080           0
     39265 WT3      967      TIP3     OH2      OT      -0.834000       15.9994           0
     39266 WT3      967      TIP3     H1       HT       0.417000        1.0080           0
     39267 WT3      967      TIP3     H2       HT       0.417000        1.0080           0
     39268 WT3      971      TIP3     OH2      OT      -0.834000       15.9994           0
     39269 WT3      971      TIP3     H1       HT       0.417000        1.0080           0
     39270 WT3      971      TIP3     H2       HT       0.417000        1.0080           0
     39271 WT3      972      TIP3     OH2      OT      -0.834000       15.9994           0
     39272 WT3      972      TIP3     H1       HT       0.417000        1.0080           0
     39273 WT3      972      TIP3     H2       HT       0.417000        1.0080           0
     39274 WT3      973      TIP3     OH2      OT      -0.834000       15.9994           0
     39275 WT3      973      TIP3     H1       HT       0.417000        1.0080           0
     39276 WT3      973      TIP3     H2       HT       0.417000        1.0080           0
     39277 WT3      974      TIP3     OH2      OT      -0.834000       15.9994           0
     39278 WT3      974      TIP3     H1       HT       0.417000        1.0080           0
     39279 WT3      974      TIP3     H2       HT       0.417000        1.0080           0
     39280 WT3      975      TIP3     OH2      OT      -0.834000       15.9994           0
     39281 WT3      975      TIP3     H1       HT       0.417000        1.0080           0
     39282 WT3      975      TIP3     H2       HT       0.417000        1.0080           0
     39283 WT3      976      TIP3     OH2      OT      -0.834000       15.9994           0
     39284 WT3      976      TIP3     H1       HT       0.417000        1.0080           0
     39285 WT3      976      TIP3     H2       HT       0.417000        1.0080           0
     39286 WT3      977      TIP3     OH2      OT      -0.834000       15.9994           0
     39287 WT3      977      TIP3     H1       HT       0.417000        1.0080           0
     39288 WT3      977      TIP3     H2       HT       0.417000        1.0080           0
     39289 WT3      978      TIP3     OH2      OT      -0.834000       15.9994           0
     39290 WT3      978      TIP3     H1       HT       0.417000        1.0080           0
     39291 WT3      978      TIP3     H2       HT       0.417000        1.0080           0
     39292 WT3      979      TIP3     OH2      OT      -0.834000       15.9994           0
     39293 WT3      979      TIP3     H1       HT       0.417000        1.0080           0
     39294 WT3      979      TIP3     H2       HT       0.417000        1.0080           0
     39295 WT3      980      TIP3     OH2      OT      -0.834000       15.9994           0
     39296 WT3      980      TIP3     H1       HT       0.417000        1.0080           0
     39297 WT3      980      TIP3     H2       HT       0.417000        1.0080           0
     39298 WT3      982      TIP3     OH2      OT      -0.834000       15.9994           0
     39299 WT3      982      TIP3     H1       HT       0.417000        1.0080           0
     39300 WT3      982      TIP3     H2       HT       0.417000        1.0080           0
     39301 WT3      983      TIP3     OH2      OT      -0.834000       15.9994           0
     39302 WT3      983      TIP3     H1       HT       0.417000        1.0080           0
     39303 WT3      983      TIP3     H2       HT       0.417000        1.0080           0
     39304 WT3      984      TIP3     OH2      OT      -0.834000       15.9994           0
     39305 WT3      984      TIP3     H1       HT       0.417000        1.0080           0
     39306 WT3      984      TIP3     H2       HT       0.417000        1.0080           0
     39307 WT3      986      TIP3     OH2      OT      -0.834000       15.9994           0
     39308 WT3      986      TIP3     H1       HT       0.417000        1.0080           0
     39309 WT3      986      TIP3     H2       HT       0.417000        1.0080           0
     39310 WT3      992      TIP3     OH2      OT      -0.834000       15.9994           0
     39311 WT3      992      TIP3     H1       HT       0.417000        1.0080           0
     39312 WT3      992      TIP3     H2       HT       0.417000        1.0080           0
     39313 WT3      993      TIP3     OH2      OT      -0.834000       15.9994           0
     39314 WT3      993      TIP3     H1       HT       0.417000        1.0080           0
     39315 WT3      993      TIP3     H2       HT       0.417000        1.0080           0
     39316 WT3      994      TIP3     OH2      OT      -0.834000       15.9994           0
     39317 WT3      994      TIP3     H1       HT       0.417000        1.0080           0
     39318 WT3      994      TIP3     H2       HT       0.417000        1.0080           0
     39319 WT3      995      TIP3     OH2      OT      -0.834000       15.9994           0
     39320 WT3      995      TIP3     H1       HT       0.417000        1.0080           0
     39321 WT3      995      TIP3     H2       HT       0.417000        1.0080           0
     39322 WT3      996      TIP3     OH2      OT      -0.834000       15.9994           0
     39323 WT3      996      TIP3     H1       HT       0.417000        1.0080           0
     39324 WT3      996      TIP3     H2       HT       0.417000        1.0080           0
     39325 WT3      997      TIP3     OH2      OT      -0.834000       15.9994           0
     39326 WT3      997      TIP3     H1       HT       0.417000        1.0080           0
     39327 WT3      997      TIP3     H2       HT       0.417000        1.0080           0
     39328 WT3      998      TIP3     OH2      OT      -0.834000       15.9994           0
     39329 WT3      998      TIP3     H1       HT       0.417000        1.0080           0
     39330 WT3      998      TIP3     H2       HT       0.417000        1.0080           0
     39331 WT3      1000     TIP3     OH2      OT      -0.834000       15.9994           0
     39332 WT3      1000     TIP3     H1       HT       0.417000        1.0080           0
     39333 WT3      1000     TIP3     H2       HT       0.417000        1.0080           0
     39334 WT3      1001     TIP3     OH2      OT      -0.834000       15.9994           0
     39335 WT3      1001     TIP3     H1       HT       0.417000        1.0080           0
     39336 WT3      1001     TIP3     H2       HT       0.417000        1.0080           0
     39337 WT3      1002     TIP3     OH2      OT      -0.834000       15.9994           0
     39338 WT3      1002     TIP3     H1       HT       0.417000        1.0080           0
     39339 WT3      1002     TIP3     H2       HT       0.417000        1.0080           0
     39340 WT3      1003     TIP3     OH2      OT      -0.834000       15.9994           0
     39341 WT3      1003     TIP3     H1       HT       0.417000        1.0080           0
     39342 WT3      1003     TIP3     H2       HT       0.417000        1.0080           0
     39343 WT3      1004     TIP3     OH2      OT      -0.834000       15.9994           0
     39344 WT3      1004     TIP3     H1       HT       0.417000        1.0080           0
     39345 WT3      1004     TIP3     H2       HT       0.417000        1.0080           0
     39346 WT3      1006     TIP3     OH2      OT      -0.834000       15.9994           0
     39347 WT3      1006     TIP3     H1       HT       0.417000        1.0080           0
     39348 WT3      1006     TIP3     H2       HT       0.417000        1.0080           0
     39349 WT3      1007     TIP3     OH2      OT      -0.834000       15.9994           0
     39350 WT3      1007     TIP3     H1       HT       0.417000        1.0080           0
     39351 WT3      1007     TIP3     H2       HT       0.417000        1.0080           0
     39352 WT3      1008     TIP3     OH2      OT      -0.834000       15.9994           0
     39353 WT3      1008     TIP3     H1       HT       0.417000        1.0080           0
     39354 WT3      1008     TIP3     H2       HT       0.417000        1.0080           0
     39355 WT3      1009     TIP3     OH2      OT      -0.834000       15.9994           0
     39356 WT3      1009     TIP3     H1       HT       0.417000        1.0080           0
     39357 WT3      1009     TIP3     H2       HT       0.417000        1.0080           0
     39358 WT3      1010     TIP3     OH2      OT      -0.834000       15.9994           0
     39359 WT3      1010     TIP3     H1       HT       0.417000        1.0080           0
     39360 WT3      1010     TIP3     H2       HT       0.417000        1.0080           0
     39361 WT3      1011     TIP3     OH2      OT      -0.834000       15.9994           0
     39362 WT3      1011     TIP3     H1       HT       0.417000        1.0080           0
     39363 WT3      1011     TIP3     H2       HT       0.417000        1.0080           0
     39364 WT3      1012     TIP3     OH2      OT      -0.834000       15.9994           0
     39365 WT3      1012     TIP3     H1       HT       0.417000        1.0080           0
     39366 WT3      1012     TIP3     H2       HT       0.417000        1.0080           0
     39367 WT3      1013     TIP3     OH2      OT      -0.834000       15.9994           0
     39368 WT3      1013     TIP3     H1       HT       0.417000        1.0080           0
     39369 WT3      1013     TIP3     H2       HT       0.417000        1.0080           0
     39370 WT3      1014     TIP3     OH2      OT      -0.834000       15.9994           0
     39371 WT3      1014     TIP3     H1       HT       0.417000        1.0080           0
     39372 WT3      1014     TIP3     H2       HT       0.417000        1.0080           0
     39373 WT3      1015     TIP3     OH2      OT      -0.834000       15.9994           0
     39374 WT3      1015     TIP3     H1       HT       0.417000        1.0080           0
     39375 WT3      1015     TIP3     H2       HT       0.417000        1.0080           0
     39376 WT3      1017     TIP3     OH2      OT      -0.834000       15.9994           0
     39377 WT3      1017     TIP3     H1       HT       0.417000        1.0080           0
     39378 WT3      1017     TIP3     H2       HT       0.417000        1.0080           0
     39379 WT3      1018     TIP3     OH2      OT      -0.834000       15.9994           0
     39380 WT3      1018     TIP3     H1       HT       0.417000        1.0080           0
     39381 WT3      1018     TIP3     H2       HT       0.417000        1.0080           0
     39382 WT3      1020     TIP3     OH2      OT      -0.834000       15.9994           0
     39383 WT3      1020     TIP3     H1       HT       0.417000        1.0080           0
     39384 WT3      1020     TIP3     H2       HT       0.417000        1.0080           0
     39385 WT3      1022     TIP3     OH2      OT      -0.834000       15.9994           0
     39386 WT3      1022     TIP3     H1       HT       0.417000        1.0080           0
     39387 WT3      1022     TIP3     H2       HT       0.417000        1.0080           0
     39388 WT3      1026     TIP3     OH2      OT      -0.834000       15.9994           0
     39389 WT3      1026     TIP3     H1       HT       0.417000        1.0080           0
     39390 WT3      1026     TIP3     H2       HT       0.417000        1.0080           0
     39391 WT3      1027     TIP3     OH2      OT      -0.834000       15.9994           0
     39392 WT3      1027     TIP3     H1       HT       0.417000        1.0080           0
     39393 WT3      1027     TIP3     H2       HT       0.417000        1.0080           0
     39394 WT3      1029     TIP3     OH2      OT      -0.834000       15.9994           0
     39395 WT3      1029     TIP3     H1       HT       0.417000        1.0080           0
     39396 WT3      1029     TIP3     H2       HT       0.417000        1.0080           0
     39397 WT3      1030     TIP3     OH2      OT      -0.834000       15.9994           0
     39398 WT3      1030     TIP3     H1       HT       0.417000        1.0080           0
     39399 WT3      1030     TIP3     H2       HT       0.417000        1.0080           0
     39400 WT3      1031     TIP3     OH2      OT      -0.834000       15.9994           0
     39401 WT3      1031     TIP3     H1       HT       0.417000        1.0080           0
     39402 WT3      1031     TIP3     H2       HT       0.417000        1.0080           0
     39403 WT3      1032     TIP3     OH2      OT      -0.834000       15.9994           0
     39404 WT3      1032     TIP3     H1       HT       0.417000        1.0080           0
     39405 WT3      1032     TIP3     H2       HT       0.417000        1.0080           0
     39406 WT3      1035     TIP3     OH2      OT      -0.834000       15.9994           0
     39407 WT3      1035     TIP3     H1       HT       0.417000        1.0080           0
     39408 WT3      1035     TIP3     H2       HT       0.417000        1.0080           0
     39409 WT3      1042     TIP3     OH2      OT      -0.834000       15.9994           0
     39410 WT3      1042     TIP3     H1       HT       0.417000        1.0080           0
     39411 WT3      1042     TIP3     H2       HT       0.417000        1.0080           0
     39412 WT3      1044     TIP3     OH2      OT      -0.834000       15.9994           0
     39413 WT3      1044     TIP3     H1       HT       0.417000        1.0080           0
     39414 WT3      1044     TIP3     H2       HT       0.417000        1.0080           0
     39415 WT3      1046     TIP3     OH2      OT      -0.834000       15.9994           0
     39416 WT3      1046     TIP3     H1       HT       0.417000        1.0080           0
     39417 WT3      1046     TIP3     H2       HT       0.417000        1.0080           0
     39418 WT3      1047     TIP3     OH2      OT      -0.834000       15.9994           0
     39419 WT3      1047     TIP3     H1       HT       0.417000        1.0080           0
     39420 WT3      1047     TIP3     H2       HT       0.417000        1.0080           0
     39421 WT3      1051     TIP3     OH2      OT      -0.834000       15.9994           0
     39422 WT3      1051     TIP3     H1       HT       0.417000        1.0080           0
     39423 WT3      1051     TIP3     H2       HT       0.417000        1.0080           0
     39424 WT3      1053     TIP3     OH2      OT      -0.834000       15.9994           0
     39425 WT3      1053     TIP3     H1       HT       0.417000        1.0080           0
     39426 WT3      1053     TIP3     H2       HT       0.417000        1.0080           0
     39427 WT3      1060     TIP3     OH2      OT      -0.834000       15.9994           0
     39428 WT3      1060     TIP3     H1       HT       0.417000        1.0080           0
     39429 WT3      1060     TIP3     H2       HT       0.417000        1.0080           0
     39430 WT3      1061     TIP3     OH2      OT      -0.834000       15.9994           0
     39431 WT3      1061     TIP3     H1       HT       0.417000        1.0080           0
     39432 WT3      1061     TIP3     H2       HT       0.417000        1.0080           0
     39433 WT3      1069     TIP3     OH2      OT      -0.834000       15.9994           0
     39434 WT3      1069     TIP3     H1       HT       0.417000        1.0080           0
     39435 WT3      1069     TIP3     H2       HT       0.417000        1.0080           0
     39436 WT3      1070     TIP3     OH2      OT      -0.834000       15.9994           0
     39437 WT3      1070     TIP3     H1       HT       0.417000        1.0080           0
     39438 WT3      1070     TIP3     H2       HT       0.417000        1.0080           0
     39439 WT3      1071     TIP3     OH2      OT      -0.834000       15.9994           0
     39440 WT3      1071     TIP3     H1       HT       0.417000        1.0080           0
     39441 WT3      1071     TIP3     H2       HT       0.417000        1.0080           0
     39442 WT3      1082     TIP3     OH2      OT      -0.834000       15.9994           0
     39443 WT3      1082     TIP3     H1       HT       0.417000        1.0080           0
     39444 WT3      1082     TIP3     H2       HT       0.417000        1.0080           0
     39445 WT3      1086     TIP3     OH2      OT      -0.834000       15.9994           0
     39446 WT3      1086     TIP3     H1       HT       0.417000        1.0080           0
     39447 WT3      1086     TIP3     H2       HT       0.417000        1.0080           0
     39448 WT3      1087     TIP3     OH2      OT      -0.834000       15.9994           0
     39449 WT3      1087     TIP3     H1       HT       0.417000        1.0080           0
     39450 WT3      1087     TIP3     H2       HT       0.417000        1.0080           0
     39451 WT3      1088     TIP3     OH2      OT      -0.834000       15.9994           0
     39452 WT3      1088     TIP3     H1       HT       0.417000        1.0080           0
     39453 WT3      1088     TIP3     H2       HT       0.417000        1.0080           0
     39454 WT3      1094     TIP3     OH2      OT      -0.834000       15.9994           0
     39455 WT3      1094     TIP3     H1       HT       0.417000        1.0080           0
     39456 WT3      1094     TIP3     H2       HT       0.417000        1.0080           0
     39457 WT3      1100     TIP3     OH2      OT      -0.834000       15.9994           0
     39458 WT3      1100     TIP3     H1       HT       0.417000        1.0080           0
     39459 WT3      1100     TIP3     H2       HT       0.417000        1.0080           0
     39460 WT3      1115     TIP3     OH2      OT      -0.834000       15.9994           0
     39461 WT3      1115     TIP3     H1       HT       0.417000        1.0080           0
     39462 WT3      1115     TIP3     H2       HT       0.417000        1.0080           0
     39463 WT3      1117     TIP3     OH2      OT      -0.834000       15.9994           0
     39464 WT3      1117     TIP3     H1       HT       0.417000        1.0080           0
     39465 WT3      1117     TIP3     H2       HT       0.417000        1.0080           0
     39466 WT3      1124     TIP3     OH2      OT      -0.834000       15.9994           0
     39467 WT3      1124     TIP3     H1       HT       0.417000        1.0080           0
     39468 WT3      1124     TIP3     H2       HT       0.417000        1.0080           0
     39469 WT3      1129     TIP3     OH2      OT      -0.834000       15.9994           0
     39470 WT3      1129     TIP3     H1       HT       0.417000        1.0080           0
     39471 WT3      1129     TIP3     H2       HT       0.417000        1.0080           0
     39472 WT3      1148     TIP3     OH2      OT      -0.834000       15.9994           0
     39473 WT3      1148     TIP3     H1       HT       0.417000        1.0080           0
     39474 WT3      1148     TIP3     H2       HT       0.417000        1.0080           0
     39475 WT3      1164     TIP3     OH2      OT      -0.834000       15.9994           0
     39476 WT3      1164     TIP3     H1       HT       0.417000        1.0080           0
     39477 WT3      1164     TIP3     H2       HT       0.417000        1.0080           0
     39478 WT3      1253     TIP3     OH2      OT      -0.834000       15.9994           0
     39479 WT3      1253     TIP3     H1       HT       0.417000        1.0080           0
     39480 WT3      1253     TIP3     H2       HT       0.417000        1.0080           0
     39481 WT3      1272     TIP3     OH2      OT      -0.834000       15.9994           0
     39482 WT3      1272     TIP3     H1       HT       0.417000        1.0080           0
     39483 WT3      1272     TIP3     H2       HT       0.417000        1.0080           0
     39484 WT3      1274     TIP3     OH2      OT      -0.834000       15.9994           0
     39485 WT3      1274     TIP3     H1       HT       0.417000        1.0080           0
     39486 WT3      1274     TIP3     H2       HT       0.417000        1.0080           0
     39487 WT3      1297     TIP3     OH2      OT      -0.834000       15.9994           0
     39488 WT3      1297     TIP3     H1       HT       0.417000        1.0080           0
     39489 WT3      1297     TIP3     H2       HT       0.417000        1.0080           0
     39490 WT3      1298     TIP3     OH2      OT      -0.834000       15.9994           0
     39491 WT3      1298     TIP3     H1       HT       0.417000        1.0080           0
     39492 WT3      1298     TIP3     H2       HT       0.417000        1.0080           0
     39493 WT3      1301     TIP3     OH2      OT      -0.834000       15.9994           0
     39494 WT3      1301     TIP3     H1       HT       0.417000        1.0080           0
     39495 WT3      1301     TIP3     H2       HT       0.417000        1.0080           0
     39496 WT3      1305     TIP3     OH2      OT      -0.834000       15.9994           0
     39497 WT3      1305     TIP3     H1       HT       0.417000        1.0080           0
     39498 WT3      1305     TIP3     H2       HT       0.417000        1.0080           0
     39499 WT3      1307     TIP3     OH2      OT      -0.834000       15.9994           0
     39500 WT3      1307     TIP3     H1       HT       0.417000        1.0080           0
     39501 WT3      1307     TIP3     H2       HT       0.417000        1.0080           0
     39502 WT3      1308     TIP3     OH2      OT      -0.834000       15.9994           0
     39503 WT3      1308     TIP3     H1       HT       0.417000        1.0080           0
     39504 WT3      1308     TIP3     H2       HT       0.417000        1.0080           0
     39505 WT3      1309     TIP3     OH2      OT      -0.834000       15.9994           0
     39506 WT3      1309     TIP3     H1       HT       0.417000        1.0080           0
     39507 WT3      1309     TIP3     H2       HT       0.417000        1.0080           0
     39508 WT3      1310     TIP3     OH2      OT      -0.834000       15.9994           0
     39509 WT3      1310     TIP3     H1       HT       0.417000        1.0080           0
     39510 WT3      1310     TIP3     H2       HT       0.417000        1.0080           0
     39511 WT3      1311     TIP3     OH2      OT      -0.834000       15.9994           0
     39512 WT3      1311     TIP3     H1       HT       0.417000        1.0080           0
     39513 WT3      1311     TIP3     H2       HT       0.417000        1.0080           0
     39514 WT3      1313     TIP3     OH2      OT      -0.834000       15.9994           0
     39515 WT3      1313     TIP3     H1       HT       0.417000        1.0080           0
     39516 WT3      1313     TIP3     H2       HT       0.417000        1.0080           0
     39517 WT3      1317     TIP3     OH2      OT      -0.834000       15.9994           0
     39518 WT3      1317     TIP3     H1       HT       0.417000        1.0080           0
     39519 WT3      1317     TIP3     H2       HT       0.417000        1.0080           0
     39520 WT3      1321     TIP3     OH2      OT      -0.834000       15.9994           0
     39521 WT3      1321     TIP3     H1       HT       0.417000        1.0080           0
     39522 WT3      1321     TIP3     H2       HT       0.417000        1.0080           0
     39523 WT3      1322     TIP3     OH2      OT      -0.834000       15.9994           0
     39524 WT3      1322     TIP3     H1       HT       0.417000        1.0080           0
     39525 WT3      1322     TIP3     H2       HT       0.417000        1.0080           0
     39526 WT3      1326     TIP3     OH2      OT      -0.834000       15.9994           0
     39527 WT3      1326     TIP3     H1       HT       0.417000        1.0080           0
     39528 WT3      1326     TIP3     H2       HT       0.417000        1.0080           0
     39529 WT3      1327     TIP3     OH2      OT      -0.834000       15.9994           0
     39530 WT3      1327     TIP3     H1       HT       0.417000        1.0080           0
     39531 WT3      1327     TIP3     H2       HT       0.417000        1.0080           0
     39532 WT3      1328     TIP3     OH2      OT      -0.834000       15.9994           0
     39533 WT3      1328     TIP3     H1       HT       0.417000        1.0080           0
     39534 WT3      1328     TIP3     H2       HT       0.417000        1.0080           0
     39535 WT3      1329     TIP3     OH2      OT      -0.834000       15.9994           0
     39536 WT3      1329     TIP3     H1       HT       0.417000        1.0080           0
     39537 WT3      1329     TIP3     H2       HT       0.417000        1.0080           0
     39538 WT3      1330     TIP3     OH2      OT      -0.834000       15.9994           0
     39539 WT3      1330     TIP3     H1       HT       0.417000        1.0080           0
     39540 WT3      1330     TIP3     H2       HT       0.417000        1.0080           0
     39541 WT3      1331     TIP3     OH2      OT      -0.834000       15.9994           0
     39542 WT3      1331     TIP3     H1       HT       0.417000        1.0080           0
     39543 WT3      1331     TIP3     H2       HT       0.417000        1.0080           0
     39544 WT3      1332     TIP3     OH2      OT      -0.834000       15.9994           0
     39545 WT3      1332     TIP3     H1       HT       0.417000        1.0080           0
     39546 WT3      1332     TIP3     H2       HT       0.417000        1.0080           0
     39547 WT3      1333     TIP3     OH2      OT      -0.834000       15.9994           0
     39548 WT3      1333     TIP3     H1       HT       0.417000        1.0080           0
     39549 WT3      1333     TIP3     H2       HT       0.417000        1.0080           0
     39550 WT3      1334     TIP3     OH2      OT      -0.834000       15.9994           0
     39551 WT3      1334     TIP3     H1       HT       0.417000        1.0080           0
     39552 WT3      1334     TIP3     H2       HT       0.417000        1.0080           0
     39553 WT3      1337     TIP3     OH2      OT      -0.834000       15.9994           0
     39554 WT3      1337     TIP3     H1       HT       0.417000        1.0080           0
     39555 WT3      1337     TIP3     H2       HT       0.417000        1.0080           0
     39556 WT3      1339     TIP3     OH2      OT      -0.834000       15.9994           0
     39557 WT3      1339     TIP3     H1       HT       0.417000        1.0080           0
     39558 WT3      1339     TIP3     H2       HT       0.417000        1.0080           0
     39559 WT3      1340     TIP3     OH2      OT      -0.834000       15.9994           0
     39560 WT3      1340     TIP3     H1       HT       0.417000        1.0080           0
     39561 WT3      1340     TIP3     H2       HT       0.417000        1.0080           0
     39562 WT3      1341     TIP3     OH2      OT      -0.834000       15.9994           0
     39563 WT3      1341     TIP3     H1       HT       0.417000        1.0080           0
     39564 WT3      1341     TIP3     H2       HT       0.417000        1.0080           0
     39565 WT3      1342     TIP3     OH2      OT      -0.834000       15.9994           0
     39566 WT3      1342     TIP3     H1       HT       0.417000        1.0080           0
     39567 WT3      1342     TIP3     H2       HT       0.417000        1.0080           0
     39568 WT3      1343     TIP3     OH2      OT      -0.834000       15.9994           0
     39569 WT3      1343     TIP3     H1       HT       0.417000        1.0080           0
     39570 WT3      1343     TIP3     H2       HT       0.417000        1.0080           0
     39571 WT3      1344     TIP3     OH2      OT      -0.834000       15.9994           0
     39572 WT3      1344     TIP3     H1       HT       0.417000        1.0080           0
     39573 WT3      1344     TIP3     H2       HT       0.417000        1.0080           0
     39574 WT3      1346     TIP3     OH2      OT      -0.834000       15.9994           0
     39575 WT3      1346     TIP3     H1       HT       0.417000        1.0080           0
     39576 WT3      1346     TIP3     H2       HT       0.417000        1.0080           0
     39577 WT3      1347     TIP3     OH2      OT      -0.834000       15.9994           0
     39578 WT3      1347     TIP3     H1       HT       0.417000        1.0080           0
     39579 WT3      1347     TIP3     H2       HT       0.417000        1.0080           0
     39580 WT3      1348     TIP3     OH2      OT      -0.834000       15.9994           0
     39581 WT3      1348     TIP3     H1       HT       0.417000        1.0080           0
     39582 WT3      1348     TIP3     H2       HT       0.417000        1.0080           0
     39583 WT3      1349     TIP3     OH2      OT      -0.834000       15.9994           0
     39584 WT3      1349     TIP3     H1       HT       0.417000        1.0080           0
     39585 WT3      1349     TIP3     H2       HT       0.417000        1.0080           0
     39586 WT3      1350     TIP3     OH2      OT      -0.834000       15.9994           0
     39587 WT3      1350     TIP3     H1       HT       0.417000        1.0080           0
     39588 WT3      1350     TIP3     H2       HT       0.417000        1.0080           0
     39589 WT3      1351     TIP3     OH2      OT      -0.834000       15.9994           0
     39590 WT3      1351     TIP3     H1       HT       0.417000        1.0080           0
     39591 WT3      1351     TIP3     H2       HT       0.417000        1.0080           0
     39592 WT3      1352     TIP3     OH2      OT      -0.834000       15.9994           0
     39593 WT3      1352     TIP3     H1       HT       0.417000        1.0080           0
     39594 WT3      1352     TIP3     H2       HT       0.417000        1.0080           0
     39595 WT3      1354     TIP3     OH2      OT      -0.834000       15.9994           0
     39596 WT3      1354     TIP3     H1       HT       0.417000        1.0080           0
     39597 WT3      1354     TIP3     H2       HT       0.417000        1.0080           0
     39598 WT3      1355     TIP3     OH2      OT      -0.834000       15.9994           0
     39599 WT3      1355     TIP3     H1       HT       0.417000        1.0080           0
     39600 WT3      1355     TIP3     H2       HT       0.417000        1.0080           0
     39601 WT3      1356     TIP3     OH2      OT      -0.834000       15.9994           0
     39602 WT3      1356     TIP3     H1       HT       0.417000        1.0080           0
     39603 WT3      1356     TIP3     H2       HT       0.417000        1.0080           0
     39604 WT3      1357     TIP3     OH2      OT      -0.834000       15.9994           0
     39605 WT3      1357     TIP3     H1       HT       0.417000        1.0080           0
     39606 WT3      1357     TIP3     H2       HT       0.417000        1.0080           0
     39607 WT3      1359     TIP3     OH2      OT      -0.834000       15.9994           0
     39608 WT3      1359     TIP3     H1       HT       0.417000        1.0080           0
     39609 WT3      1359     TIP3     H2       HT       0.417000        1.0080           0
     39610 WT3      1360     TIP3     OH2      OT      -0.834000       15.9994           0
     39611 WT3      1360     TIP3     H1       HT       0.417000        1.0080           0
     39612 WT3      1360     TIP3     H2       HT       0.417000        1.0080           0
     39613 WT3      1362     TIP3     OH2      OT      -0.834000       15.9994           0
     39614 WT3      1362     TIP3     H1       HT       0.417000        1.0080           0
     39615 WT3      1362     TIP3     H2       HT       0.417000        1.0080           0
     39616 WT3      1363     TIP3     OH2      OT      -0.834000       15.9994           0
     39617 WT3      1363     TIP3     H1       HT       0.417000        1.0080           0
     39618 WT3      1363     TIP3     H2       HT       0.417000        1.0080           0
     39619 WT3      1365     TIP3     OH2      OT      -0.834000       15.9994           0
     39620 WT3      1365     TIP3     H1       HT       0.417000        1.0080           0
     39621 WT3      1365     TIP3     H2       HT       0.417000        1.0080           0
     39622 WT3      1367     TIP3     OH2      OT      -0.834000       15.9994           0
     39623 WT3      1367     TIP3     H1       HT       0.417000        1.0080           0
     39624 WT3      1367     TIP3     H2       HT       0.417000        1.0080           0
     39625 WT3      1368     TIP3     OH2      OT      -0.834000       15.9994           0
     39626 WT3      1368     TIP3     H1       HT       0.417000        1.0080           0
     39627 WT3      1368     TIP3     H2       HT       0.417000        1.0080           0
     39628 WT3      1369     TIP3     OH2      OT      -0.834000       15.9994           0
     39629 WT3      1369     TIP3     H1       HT       0.417000        1.0080           0
     39630 WT3      1369     TIP3     H2       HT       0.417000        1.0080           0
     39631 WT3      1370     TIP3     OH2      OT      -0.834000       15.9994           0
     39632 WT3      1370     TIP3     H1       HT       0.417000        1.0080           0
     39633 WT3      1370     TIP3     H2       HT       0.417000        1.0080           0
     39634 WT3      1371     TIP3     OH2      OT      -0.834000       15.9994           0
     39635 WT3      1371     TIP3     H1       HT       0.417000        1.0080           0
     39636 WT3      1371     TIP3     H2       HT       0.417000        1.0080           0
     39637 WT3      1372     TIP3     OH2      OT      -0.834000       15.9994           0
     39638 WT3      1372     TIP3     H1       HT       0.417000        1.0080           0
     39639 WT3      1372     TIP3     H2       HT       0.417000        1.0080           0
     39640 WT3      1374     TIP3     OH2      OT      -0.834000       15.9994           0
     39641 WT3      1374     TIP3     H1       HT       0.417000        1.0080           0
     39642 WT3      1374     TIP3     H2       HT       0.417000        1.0080           0
     39643 WT3      1375     TIP3     OH2      OT      -0.834000       15.9994           0
     39644 WT3      1375     TIP3     H1       HT       0.417000        1.0080           0
     39645 WT3      1375     TIP3     H2       HT       0.417000        1.0080           0
     39646 WT3      1376     TIP3     OH2      OT      -0.834000       15.9994           0
     39647 WT3      1376     TIP3     H1       HT       0.417000        1.0080           0
     39648 WT3      1376     TIP3     H2       HT       0.417000        1.0080           0
     39649 WT3      1378     TIP3     OH2      OT      -0.834000       15.9994           0
     39650 WT3      1378     TIP3     H1       HT       0.417000        1.0080           0
     39651 WT3      1378     TIP3     H2       HT       0.417000        1.0080           0
     39652 WT3      1379     TIP3     OH2      OT      -0.834000       15.9994           0
     39653 WT3      1379     TIP3     H1       HT       0.417000        1.0080           0
     39654 WT3      1379     TIP3     H2       HT       0.417000        1.0080           0
     39655 WT3      1380     TIP3     OH2      OT      -0.834000       15.9994           0
     39656 WT3      1380     TIP3     H1       HT       0.417000        1.0080           0
     39657 WT3      1380     TIP3     H2       HT       0.417000        1.0080           0
     39658 WT3      1381     TIP3     OH2      OT      -0.834000       15.9994           0
     39659 WT3      1381     TIP3     H1       HT       0.417000        1.0080           0
     39660 WT3      1381     TIP3     H2       HT       0.417000        1.0080           0
     39661 WT3      1382     TIP3     OH2      OT      -0.834000       15.9994           0
     39662 WT3      1382     TIP3     H1       HT       0.417000        1.0080           0
     39663 WT3      1382     TIP3     H2       HT       0.417000        1.0080           0
     39664 WT3      1383     TIP3     OH2      OT      -0.834000       15.9994           0
     39665 WT3      1383     TIP3     H1       HT       0.417000        1.0080           0
     39666 WT3      1383     TIP3     H2       HT       0.417000        1.0080           0
     39667 WT3      1384     TIP3     OH2      OT      -0.834000       15.9994           0
     39668 WT3      1384     TIP3     H1       HT       0.417000        1.0080           0
     39669 WT3      1384     TIP3     H2       HT       0.417000        1.0080           0
     39670 WT3      1387     TIP3     OH2      OT      -0.834000       15.9994           0
     39671 WT3      1387     TIP3     H1       HT       0.417000        1.0080           0
     39672 WT3      1387     TIP3     H2       HT       0.417000        1.0080           0
     39673 WT3      1388     TIP3     OH2      OT      -0.834000       15.9994           0
     39674 WT3      1388     TIP3     H1       HT       0.417000        1.0080           0
     39675 WT3      1388     TIP3     H2       HT       0.417000        1.0080           0
     39676 WT3      1389     TIP3     OH2      OT      -0.834000       15.9994           0
     39677 WT3      1389     TIP3     H1       HT       0.417000        1.0080           0
     39678 WT3      1389     TIP3     H2       HT       0.417000        1.0080           0
     39679 WT3      1390     TIP3     OH2      OT      -0.834000       15.9994           0
     39680 WT3      1390     TIP3     H1       HT       0.417000        1.0080           0
     39681 WT3      1390     TIP3     H2       HT       0.417000        1.0080           0
     39682 WT3      1392     TIP3     OH2      OT      -0.834000       15.9994           0
     39683 WT3      1392     TIP3     H1       HT       0.417000        1.0080           0
     39684 WT3      1392     TIP3     H2       HT       0.417000        1.0080           0
     39685 WT3      1393     TIP3     OH2      OT      -0.834000       15.9994           0
     39686 WT3      1393     TIP3     H1       HT       0.417000        1.0080           0
     39687 WT3      1393     TIP3     H2       HT       0.417000        1.0080           0
     39688 WT3      1394     TIP3     OH2      OT      -0.834000       15.9994           0
     39689 WT3      1394     TIP3     H1       HT       0.417000        1.0080           0
     39690 WT3      1394     TIP3     H2       HT       0.417000        1.0080           0
     39691 WT3      1395     TIP3     OH2      OT      -0.834000       15.9994           0
     39692 WT3      1395     TIP3     H1       HT       0.417000        1.0080           0
     39693 WT3      1395     TIP3     H2       HT       0.417000        1.0080           0
     39694 WT3      1396     TIP3     OH2      OT      -0.834000       15.9994           0
     39695 WT3      1396     TIP3     H1       HT       0.417000        1.0080           0
     39696 WT3      1396     TIP3     H2       HT       0.417000        1.0080           0
     39697 WT3      1397     TIP3     OH2      OT      -0.834000       15.9994           0
     39698 WT3      1397     TIP3     H1       HT       0.417000        1.0080           0
     39699 WT3      1397     TIP3     H2       HT       0.417000        1.0080           0
     39700 WT3      1398     TIP3     OH2      OT      -0.834000       15.9994           0
     39701 WT3      1398     TIP3     H1       HT       0.417000        1.0080           0
     39702 WT3      1398     TIP3     H2       HT       0.417000        1.0080           0
     39703 WT3      1399     TIP3     OH2      OT      -0.834000       15.9994           0
     39704 WT3      1399     TIP3     H1       HT       0.417000        1.0080           0
     39705 WT3      1399     TIP3     H2       HT       0.417000        1.0080           0
     39706 WT3      1400     TIP3     OH2      OT      -0.834000       15.9994           0
     39707 WT3      1400     TIP3     H1       HT       0.417000        1.0080           0
     39708 WT3      1400     TIP3     H2       HT       0.417000        1.0080           0
     39709 WT3      1401     TIP3     OH2      OT      -0.834000       15.9994           0
     39710 WT3      1401     TIP3     H1       HT       0.417000        1.0080           0
     39711 WT3      1401     TIP3     H2       HT       0.417000        1.0080           0
     39712 WT3      1402     TIP3     OH2      OT      -0.834000       15.9994           0
     39713 WT3      1402     TIP3     H1       HT       0.417000        1.0080           0
     39714 WT3      1402     TIP3     H2       HT       0.417000        1.0080           0
     39715 WT3      1403     TIP3     OH2      OT      -0.834000       15.9994           0
     39716 WT3      1403     TIP3     H1       HT       0.417000        1.0080           0
     39717 WT3      1403     TIP3     H2       HT       0.417000        1.0080           0
     39718 WT3      1404     TIP3     OH2      OT      -0.834000       15.9994           0
     39719 WT3      1404     TIP3     H1       HT       0.417000        1.0080           0
     39720 WT3      1404     TIP3     H2       HT       0.417000        1.0080           0
     39721 WT3      1406     TIP3     OH2      OT      -0.834000       15.9994           0
     39722 WT3      1406     TIP3     H1       HT       0.417000        1.0080           0
     39723 WT3      1406     TIP3     H2       HT       0.417000        1.0080           0
     39724 WT3      1407     TIP3     OH2      OT      -0.834000       15.9994           0
     39725 WT3      1407     TIP3     H1       HT       0.417000        1.0080           0
     39726 WT3      1407     TIP3     H2       HT       0.417000        1.0080           0
     39727 WT3      1409     TIP3     OH2      OT      -0.834000       15.9994           0
     39728 WT3      1409     TIP3     H1       HT       0.417000        1.0080           0
     39729 WT3      1409     TIP3     H2       HT       0.417000        1.0080           0
     39730 WT3      1410     TIP3     OH2      OT      -0.834000       15.9994           0
     39731 WT3      1410     TIP3     H1       HT       0.417000        1.0080           0
     39732 WT3      1410     TIP3     H2       HT       0.417000        1.0080           0
     39733 WT3      1411     TIP3     OH2      OT      -0.834000       15.9994           0
     39734 WT3      1411     TIP3     H1       HT       0.417000        1.0080           0
     39735 WT3      1411     TIP3     H2       HT       0.417000        1.0080           0
     39736 WT3      1412     TIP3     OH2      OT      -0.834000       15.9994           0
     39737 WT3      1412     TIP3     H1       HT       0.417000        1.0080           0
     39738 WT3      1412     TIP3     H2       HT       0.417000        1.0080           0
     39739 WT3      1413     TIP3     OH2      OT      -0.834000       15.9994           0
     39740 WT3      1413     TIP3     H1       HT       0.417000        1.0080           0
     39741 WT3      1413     TIP3     H2       HT       0.417000        1.0080           0
     39742 WT3      1414     TIP3     OH2      OT      -0.834000       15.9994           0
     39743 WT3      1414     TIP3     H1       HT       0.417000        1.0080           0
     39744 WT3      1414     TIP3     H2       HT       0.417000        1.0080           0
     39745 WT3      1415     TIP3     OH2      OT      -0.834000       15.9994           0
     39746 WT3      1415     TIP3     H1       HT       0.417000        1.0080           0
     39747 WT3      1415     TIP3     H2       HT       0.417000        1.0080           0
     39748 WT3      1416     TIP3     OH2      OT      -0.834000       15.9994           0
     39749 WT3      1416     TIP3     H1       HT       0.417000        1.0080           0
     39750 WT3      1416     TIP3     H2       HT       0.417000        1.0080           0
     39751 WT3      1417     TIP3     OH2      OT      -0.834000       15.9994           0
     39752 WT3      1417     TIP3     H1       HT       0.417000        1.0080           0
     39753 WT3      1417     TIP3     H2       HT       0.417000        1.0080           0
     39754 WT3      1418     TIP3     OH2      OT      -0.834000       15.9994           0
     39755 WT3      1418     TIP3     H1       HT       0.417000        1.0080           0
     39756 WT3      1418     TIP3     H2       HT       0.417000        1.0080           0
     39757 WT3      1419     TIP3     OH2      OT      -0.834000       15.9994           0
     39758 WT3      1419     TIP3     H1       HT       0.417000        1.0080           0
     39759 WT3      1419     TIP3     H2       HT       0.417000        1.0080           0
     39760 WT3      1420     TIP3     OH2      OT      -0.834000       15.9994           0
     39761 WT3      1420     TIP3     H1       HT       0.417000        1.0080           0
     39762 WT3      1420     TIP3     H2       HT       0.417000        1.0080           0
     39763 WT3      1421     TIP3     OH2      OT      -0.834000       15.9994           0
     39764 WT3      1421     TIP3     H1       HT       0.417000        1.0080           0
     39765 WT3      1421     TIP3     H2       HT       0.417000        1.0080           0
     39766 WT3      1422     TIP3     OH2      OT      -0.834000       15.9994           0
     39767 WT3      1422     TIP3     H1       HT       0.417000        1.0080           0
     39768 WT3      1422     TIP3     H2       HT       0.417000        1.0080           0
     39769 WT3      1423     TIP3     OH2      OT      -0.834000       15.9994           0
     39770 WT3      1423     TIP3     H1       HT       0.417000        1.0080           0
     39771 WT3      1423     TIP3     H2       HT       0.417000        1.0080           0
     39772 WT3      1424     TIP3     OH2      OT      -0.834000       15.9994           0
     39773 WT3      1424     TIP3     H1       HT       0.417000        1.0080           0
     39774 WT3      1424     TIP3     H2       HT       0.417000        1.0080           0
     39775 WT3      1426     TIP3     OH2      OT      -0.834000       15.9994           0
     39776 WT3      1426     TIP3     H1       HT       0.417000        1.0080           0
     39777 WT3      1426     TIP3     H2       HT       0.417000        1.0080           0
     39778 WT3      1428     TIP3     OH2      OT      -0.834000       15.9994           0
     39779 WT3      1428     TIP3     H1       HT       0.417000        1.0080           0
     39780 WT3      1428     TIP3     H2       HT       0.417000        1.0080           0
     39781 WT3      1429     TIP3     OH2      OT      -0.834000       15.9994           0
     39782 WT3      1429     TIP3     H1       HT       0.417000        1.0080           0
     39783 WT3      1429     TIP3     H2       HT       0.417000        1.0080           0
     39784 WT3      1431     TIP3     OH2      OT      -0.834000       15.9994           0
     39785 WT3      1431     TIP3     H1       HT       0.417000        1.0080           0
     39786 WT3      1431     TIP3     H2       HT       0.417000        1.0080           0
     39787 WT3      1433     TIP3     OH2      OT      -0.834000       15.9994           0
     39788 WT3      1433     TIP3     H1       HT       0.417000        1.0080           0
     39789 WT3      1433     TIP3     H2       HT       0.417000        1.0080           0
     39790 WT3      1434     TIP3     OH2      OT      -0.834000       15.9994           0
     39791 WT3      1434     TIP3     H1       HT       0.417000        1.0080           0
     39792 WT3      1434     TIP3     H2       HT       0.417000        1.0080           0
     39793 WT3      1435     TIP3     OH2      OT      -0.834000       15.9994           0
     39794 WT3      1435     TIP3     H1       HT       0.417000        1.0080           0
     39795 WT3      1435     TIP3     H2       HT       0.417000        1.0080           0
     39796 WT3      1437     TIP3     OH2      OT      -0.834000       15.9994           0
     39797 WT3      1437     TIP3     H1       HT       0.417000        1.0080           0
     39798 WT3      1437     TIP3     H2       HT       0.417000        1.0080           0
     39799 WT3      1438     TIP3     OH2      OT      -0.834000       15.9994           0
     39800 WT3      1438     TIP3     H1       HT       0.417000        1.0080           0
     39801 WT3      1438     TIP3     H2       HT       0.417000        1.0080           0
     39802 WT3      1440     TIP3     OH2      OT      -0.834000       15.9994           0
     39803 WT3      1440     TIP3     H1       HT       0.417000        1.0080           0
     39804 WT3      1440     TIP3     H2       HT       0.417000        1.0080           0
     39805 WT3      1441     TIP3     OH2      OT      -0.834000       15.9994           0
     39806 WT3      1441     TIP3     H1       HT       0.417000        1.0080           0
     39807 WT3      1441     TIP3     H2       HT       0.417000        1.0080           0
     39808 WT3      1442     TIP3     OH2      OT      -0.834000       15.9994           0
     39809 WT3      1442     TIP3     H1       HT       0.417000        1.0080           0
     39810 WT3      1442     TIP3     H2       HT       0.417000        1.0080           0
     39811 WT3      1444     TIP3     OH2      OT      -0.834000       15.9994           0
     39812 WT3      1444     TIP3     H1       HT       0.417000        1.0080           0
     39813 WT3      1444     TIP3     H2       HT       0.417000        1.0080           0
     39814 WT3      1445     TIP3     OH2      OT      -0.834000       15.9994           0
     39815 WT3      1445     TIP3     H1       HT       0.417000        1.0080           0
     39816 WT3      1445     TIP3     H2       HT       0.417000        1.0080           0
     39817 WT3      1448     TIP3     OH2      OT      -0.834000       15.9994           0
     39818 WT3      1448     TIP3     H1       HT       0.417000        1.0080           0
     39819 WT3      1448     TIP3     H2       HT       0.417000        1.0080           0
     39820 WT3      1449     TIP3     OH2      OT      -0.834000       15.9994           0
     39821 WT3      1449     TIP3     H1       HT       0.417000        1.0080           0
     39822 WT3      1449     TIP3     H2       HT       0.417000        1.0080           0
     39823 WT3      1451     TIP3     OH2      OT      -0.834000       15.9994           0
     39824 WT3      1451     TIP3     H1       HT       0.417000        1.0080           0
     39825 WT3      1451     TIP3     H2       HT       0.417000        1.0080           0
     39826 WT3      1454     TIP3     OH2      OT      -0.834000       15.9994           0
     39827 WT3      1454     TIP3     H1       HT       0.417000        1.0080           0
     39828 WT3      1454     TIP3     H2       HT       0.417000        1.0080           0
     39829 WT3      1455     TIP3     OH2      OT      -0.834000       15.9994           0
     39830 WT3      1455     TIP3     H1       HT       0.417000        1.0080           0
     39831 WT3      1455     TIP3     H2       HT       0.417000        1.0080           0
     39832 WT3      1456     TIP3     OH2      OT      -0.834000       15.9994           0
     39833 WT3      1456     TIP3     H1       HT       0.417000        1.0080           0
     39834 WT3      1456     TIP3     H2       HT       0.417000        1.0080           0
     39835 WT3      1457     TIP3     OH2      OT      -0.834000       15.9994           0
     39836 WT3      1457     TIP3     H1       HT       0.417000        1.0080           0
     39837 WT3      1457     TIP3     H2       HT       0.417000        1.0080           0
     39838 WT3      1458     TIP3     OH2      OT      -0.834000       15.9994           0
     39839 WT3      1458     TIP3     H1       HT       0.417000        1.0080           0
     39840 WT3      1458     TIP3     H2       HT       0.417000        1.0080           0
     39841 WT3      1461     TIP3     OH2      OT      -0.834000       15.9994           0
     39842 WT3      1461     TIP3     H1       HT       0.417000        1.0080           0
     39843 WT3      1461     TIP3     H2       HT       0.417000        1.0080           0
     39844 WT3      1462     TIP3     OH2      OT      -0.834000       15.9994           0
     39845 WT3      1462     TIP3     H1       HT       0.417000        1.0080           0
     39846 WT3      1462     TIP3     H2       HT       0.417000        1.0080           0
     39847 WT3      1463     TIP3     OH2      OT      -0.834000       15.9994           0
     39848 WT3      1463     TIP3     H1       HT       0.417000        1.0080           0
     39849 WT3      1463     TIP3     H2       HT       0.417000        1.0080           0
     39850 WT3      1464     TIP3     OH2      OT      -0.834000       15.9994           0
     39851 WT3      1464     TIP3     H1       HT       0.417000        1.0080           0
     39852 WT3      1464     TIP3     H2       HT       0.417000        1.0080           0
     39853 WT3      1467     TIP3     OH2      OT      -0.834000       15.9994           0
     39854 WT3      1467     TIP3     H1       HT       0.417000        1.0080           0
     39855 WT3      1467     TIP3     H2       HT       0.417000        1.0080           0
     39856 WT3      1470     TIP3     OH2      OT      -0.834000       15.9994           0
     39857 WT3      1470     TIP3     H1       HT       0.417000        1.0080           0
     39858 WT3      1470     TIP3     H2       HT       0.417000        1.0080           0
     39859 WT3      1471     TIP3     OH2      OT      -0.834000       15.9994           0
     39860 WT3      1471     TIP3     H1       HT       0.417000        1.0080           0
     39861 WT3      1471     TIP3     H2       HT       0.417000        1.0080           0
     39862 WT3      1474     TIP3     OH2      OT      -0.834000       15.9994           0
     39863 WT3      1474     TIP3     H1       HT       0.417000        1.0080           0
     39864 WT3      1474     TIP3     H2       HT       0.417000        1.0080           0
     39865 WT3      1475     TIP3     OH2      OT      -0.834000       15.9994           0
     39866 WT3      1475     TIP3     H1       HT       0.417000        1.0080           0
     39867 WT3      1475     TIP3     H2       HT       0.417000        1.0080           0
     39868 WT3      1476     TIP3     OH2      OT      -0.834000       15.9994           0
     39869 WT3      1476     TIP3     H1       HT       0.417000        1.0080           0
     39870 WT3      1476     TIP3     H2       HT       0.417000        1.0080           0
     39871 WT3      1482     TIP3     OH2      OT      -0.834000       15.9994           0
     39872 WT3      1482     TIP3     H1       HT       0.417000        1.0080           0
     39873 WT3      1482     TIP3     H2       HT       0.417000        1.0080           0
     39874 WT3      1484     TIP3     OH2      OT      -0.834000       15.9994           0
     39875 WT3      1484     TIP3     H1       HT       0.417000        1.0080           0
     39876 WT3      1484     TIP3     H2       HT       0.417000        1.0080           0
     39877 WT3      1487     TIP3     OH2      OT      -0.834000       15.9994           0
     39878 WT3      1487     TIP3     H1       HT       0.417000        1.0080           0
     39879 WT3      1487     TIP3     H2       HT       0.417000        1.0080           0
     39880 WT3      1489     TIP3     OH2      OT      -0.834000       15.9994           0
     39881 WT3      1489     TIP3     H1       HT       0.417000        1.0080           0
     39882 WT3      1489     TIP3     H2       HT       0.417000        1.0080           0
     39883 WT3      1494     TIP3     OH2      OT      -0.834000       15.9994           0
     39884 WT3      1494     TIP3     H1       HT       0.417000        1.0080           0
     39885 WT3      1494     TIP3     H2       HT       0.417000        1.0080           0
     39886 WT3      1495     TIP3     OH2      OT      -0.834000       15.9994           0
     39887 WT3      1495     TIP3     H1       HT       0.417000        1.0080           0
     39888 WT3      1495     TIP3     H2       HT       0.417000        1.0080           0
     39889 WT3      1496     TIP3     OH2      OT      -0.834000       15.9994           0
     39890 WT3      1496     TIP3     H1       HT       0.417000        1.0080           0
     39891 WT3      1496     TIP3     H2       HT       0.417000        1.0080           0
     39892 WT3      1497     TIP3     OH2      OT      -0.834000       15.9994           0
     39893 WT3      1497     TIP3     H1       HT       0.417000        1.0080           0
     39894 WT3      1497     TIP3     H2       HT       0.417000        1.0080           0
     39895 WT3      1501     TIP3     OH2      OT      -0.834000       15.9994           0
     39896 WT3      1501     TIP3     H1       HT       0.417000        1.0080           0
     39897 WT3      1501     TIP3     H2       HT       0.417000        1.0080           0
     39898 WT3      1509     TIP3     OH2      OT      -0.834000       15.9994           0
     39899 WT3      1509     TIP3     H1       HT       0.417000        1.0080           0
     39900 WT3      1509     TIP3     H2       HT       0.417000        1.0080           0
     39901 WT3      1512     TIP3     OH2      OT      -0.834000       15.9994           0
     39902 WT3      1512     TIP3     H1       HT       0.417000        1.0080           0
     39903 WT3      1512     TIP3     H2       HT       0.417000        1.0080           0
     39904 WT3      1517     TIP3     OH2      OT      -0.834000       15.9994           0
     39905 WT3      1517     TIP3     H1       HT       0.417000        1.0080           0
     39906 WT3      1517     TIP3     H2       HT       0.417000        1.0080           0
     39907 WT3      1530     TIP3     OH2      OT      -0.834000       15.9994           0
     39908 WT3      1530     TIP3     H1       HT       0.417000        1.0080           0
     39909 WT3      1530     TIP3     H2       HT       0.417000        1.0080           0
     39910 WT3      1532     TIP3     OH2      OT      -0.834000       15.9994           0
     39911 WT3      1532     TIP3     H1       HT       0.417000        1.0080           0
     39912 WT3      1532     TIP3     H2       HT       0.417000        1.0080           0
     39913 WT3      1533     TIP3     OH2      OT      -0.834000       15.9994           0
     39914 WT3      1533     TIP3     H1       HT       0.417000        1.0080           0
     39915 WT3      1533     TIP3     H2       HT       0.417000        1.0080           0
     39916 WT3      1541     TIP3     OH2      OT      -0.834000       15.9994           0
     39917 WT3      1541     TIP3     H1       HT       0.417000        1.0080           0
     39918 WT3      1541     TIP3     H2       HT       0.417000        1.0080           0
     39919 WT3      1544     TIP3     OH2      OT      -0.834000       15.9994           0
     39920 WT3      1544     TIP3     H1       HT       0.417000        1.0080           0
     39921 WT3      1544     TIP3     H2       HT       0.417000        1.0080           0
     39922 WT3      1550     TIP3     OH2      OT      -0.834000       15.9994           0
     39923 WT3      1550     TIP3     H1       HT       0.417000        1.0080           0
     39924 WT3      1550     TIP3     H2       HT       0.417000        1.0080           0
     39925 WT3      1551     TIP3     OH2      OT      -0.834000       15.9994           0
     39926 WT3      1551     TIP3     H1       HT       0.417000        1.0080           0
     39927 WT3      1551     TIP3     H2       HT       0.417000        1.0080           0
     39928 WT3      1559     TIP3     OH2      OT      -0.834000       15.9994           0
     39929 WT3      1559     TIP3     H1       HT       0.417000        1.0080           0
     39930 WT3      1559     TIP3     H2       HT       0.417000        1.0080           0
     39931 WT3      1592     TIP3     OH2      OT      -0.834000       15.9994           0
     39932 WT3      1592     TIP3     H1       HT       0.417000        1.0080           0
     39933 WT3      1592     TIP3     H2       HT       0.417000        1.0080           0
     39934 WT3      1611     TIP3     OH2      OT      -0.834000       15.9994           0
     39935 WT3      1611     TIP3     H1       HT       0.417000        1.0080           0
     39936 WT3      1611     TIP3     H2       HT       0.417000        1.0080           0
     39937 WT3      1650     TIP3     OH2      OT      -0.834000       15.9994           0
     39938 WT3      1650     TIP3     H1       HT       0.417000        1.0080           0
     39939 WT3      1650     TIP3     H2       HT       0.417000        1.0080           0
     39940 WT3      1670     TIP3     OH2      OT      -0.834000       15.9994           0
     39941 WT3      1670     TIP3     H1       HT       0.417000        1.0080           0
     39942 WT3      1670     TIP3     H2       HT       0.417000        1.0080           0
     39943 WT3      1692     TIP3     OH2      OT      -0.834000       15.9994           0
     39944 WT3      1692     TIP3     H1       HT       0.417000        1.0080           0
     39945 WT3      1692     TIP3     H2       HT       0.417000        1.0080           0
     39946 WT3      1707     TIP3     OH2      OT      -0.834000       15.9994           0
     39947 WT3      1707     TIP3     H1       HT       0.417000        1.0080           0
     39948 WT3      1707     TIP3     H2       HT       0.417000        1.0080           0
     39949 WT3      1711     TIP3     OH2      OT      -0.834000       15.9994           0
     39950 WT3      1711     TIP3     H1       HT       0.417000        1.0080           0
     39951 WT3      1711     TIP3     H2       HT       0.417000        1.0080           0
     39952 WT3      1712     TIP3     OH2      OT      -0.834000       15.9994           0
     39953 WT3      1712     TIP3     H1       HT       0.417000        1.0080           0
     39954 WT3      1712     TIP3     H2       HT       0.417000        1.0080           0
     39955 WT3      1714     TIP3     OH2      OT      -0.834000       15.9994           0
     39956 WT3      1714     TIP3     H1       HT       0.417000        1.0080           0
     39957 WT3      1714     TIP3     H2       HT       0.417000        1.0080           0
     39958 WT3      1715     TIP3     OH2      OT      -0.834000       15.9994           0
     39959 WT3      1715     TIP3     H1       HT       0.417000        1.0080           0
     39960 WT3      1715     TIP3     H2       HT       0.417000        1.0080           0
     39961 WT3      1718     TIP3     OH2      OT      -0.834000       15.9994           0
     39962 WT3      1718     TIP3     H1       HT       0.417000        1.0080           0
     39963 WT3      1718     TIP3     H2       HT       0.417000        1.0080           0
     39964 WT3      1722     TIP3     OH2      OT      -0.834000       15.9994           0
     39965 WT3      1722     TIP3     H1       HT       0.417000        1.0080           0
     39966 WT3      1722     TIP3     H2       HT       0.417000        1.0080           0
     39967 WT3      1723     TIP3     OH2      OT      -0.834000       15.9994           0
     39968 WT3      1723     TIP3     H1       HT       0.417000        1.0080           0
     39969 WT3      1723     TIP3     H2       HT       0.417000        1.0080           0
     39970 WT3      1725     TIP3     OH2      OT      -0.834000       15.9994           0
     39971 WT3      1725     TIP3     H1       HT       0.417000        1.0080           0
     39972 WT3      1725     TIP3     H2       HT       0.417000        1.0080           0
     39973 WT3      1727     TIP3     OH2      OT      -0.834000       15.9994           0
     39974 WT3      1727     TIP3     H1       HT       0.417000        1.0080           0
     39975 WT3      1727     TIP3     H2       HT       0.417000        1.0080           0
     39976 WT3      1729     TIP3     OH2      OT      -0.834000       15.9994           0
     39977 WT3      1729     TIP3     H1       HT       0.417000        1.0080           0
     39978 WT3      1729     TIP3     H2       HT       0.417000        1.0080           0
     39979 WT3      1730     TIP3     OH2      OT      -0.834000       15.9994           0
     39980 WT3      1730     TIP3     H1       HT       0.417000        1.0080           0
     39981 WT3      1730     TIP3     H2       HT       0.417000        1.0080           0
     39982 WT3      1733     TIP3     OH2      OT      -0.834000       15.9994           0
     39983 WT3      1733     TIP3     H1       HT       0.417000        1.0080           0
     39984 WT3      1733     TIP3     H2       HT       0.417000        1.0080           0
     39985 WT3      1735     TIP3     OH2      OT      -0.834000       15.9994           0
     39986 WT3      1735     TIP3     H1       HT       0.417000        1.0080           0
     39987 WT3      1735     TIP3     H2       HT       0.417000        1.0080           0
     39988 WT3      1736     TIP3     OH2      OT      -0.834000       15.9994           0
     39989 WT3      1736     TIP3     H1       HT       0.417000        1.0080           0
     39990 WT3      1736     TIP3     H2       HT       0.417000        1.0080           0
     39991 WT3      1740     TIP3     OH2      OT      -0.834000       15.9994           0
     39992 WT3      1740     TIP3     H1       HT       0.417000        1.0080           0
     39993 WT3      1740     TIP3     H2       HT       0.417000        1.0080           0
     39994 WT3      1741     TIP3     OH2      OT      -0.834000       15.9994           0
     39995 WT3      1741     TIP3     H1       HT       0.417000        1.0080           0
     39996 WT3      1741     TIP3     H2       HT       0.417000        1.0080           0
     39997 WT3      1744     TIP3     OH2      OT      -0.834000       15.9994           0
     39998 WT3      1744     TIP3     H1       HT       0.417000        1.0080           0
     39999 WT3      1744     TIP3     H2       HT       0.417000        1.0080           0
     40000 WT3      1746     TIP3     OH2      OT      -0.834000       15.9994           0
     40001 WT3      1746     TIP3     H1       HT       0.417000        1.0080           0
     40002 WT3      1746     TIP3     H2       HT       0.417000        1.0080           0
     40003 WT3      1748     TIP3     OH2      OT      -0.834000       15.9994           0
     40004 WT3      1748     TIP3     H1       HT       0.417000        1.0080           0
     40005 WT3      1748     TIP3     H2       HT       0.417000        1.0080           0
     40006 WT3      1752     TIP3     OH2      OT      -0.834000       15.9994           0
     40007 WT3      1752     TIP3     H1       HT       0.417000        1.0080           0
     40008 WT3      1752     TIP3     H2       HT       0.417000        1.0080           0
     40009 WT3      1755     TIP3     OH2      OT      -0.834000       15.9994           0
     40010 WT3      1755     TIP3     H1       HT       0.417000        1.0080           0
     40011 WT3      1755     TIP3     H2       HT       0.417000        1.0080           0
     40012 WT3      1756     TIP3     OH2      OT      -0.834000       15.9994           0
     40013 WT3      1756     TIP3     H1       HT       0.417000        1.0080           0
     40014 WT3      1756     TIP3     H2       HT       0.417000        1.0080           0
     40015 WT3      1757     TIP3     OH2      OT      -0.834000       15.9994           0
     40016 WT3      1757     TIP3     H1       HT       0.417000        1.0080           0
     40017 WT3      1757     TIP3     H2       HT       0.417000        1.0080           0
     40018 WT3      1764     TIP3     OH2      OT      -0.834000       15.9994           0
     40019 WT3      1764     TIP3     H1       HT       0.417000        1.0080           0
     40020 WT3      1764     TIP3     H2       HT       0.417000        1.0080           0
     40021 WT3      1766     TIP3     OH2      OT      -0.834000       15.9994           0
     40022 WT3      1766     TIP3     H1       HT       0.417000        1.0080           0
     40023 WT3      1766     TIP3     H2       HT       0.417000        1.0080           0
     40024 WT3      1768     TIP3     OH2      OT      -0.834000       15.9994           0
     40025 WT3      1768     TIP3     H1       HT       0.417000        1.0080           0
     40026 WT3      1768     TIP3     H2       HT       0.417000        1.0080           0
     40027 WT3      1771     TIP3     OH2      OT      -0.834000       15.9994           0
     40028 WT3      1771     TIP3     H1       HT       0.417000        1.0080           0
     40029 WT3      1771     TIP3     H2       HT       0.417000        1.0080           0
     40030 WT3      1772     TIP3     OH2      OT      -0.834000       15.9994           0
     40031 WT3      1772     TIP3     H1       HT       0.417000        1.0080           0
     40032 WT3      1772     TIP3     H2       HT       0.417000        1.0080           0
     40033 WT3      1773     TIP3     OH2      OT      -0.834000       15.9994           0
     40034 WT3      1773     TIP3     H1       HT       0.417000        1.0080           0
     40035 WT3      1773     TIP3     H2       HT       0.417000        1.0080           0
     40036 WT3      1775     TIP3     OH2      OT      -0.834000       15.9994           0
     40037 WT3      1775     TIP3     H1       HT       0.417000        1.0080           0
     40038 WT3      1775     TIP3     H2       HT       0.417000        1.0080           0
     40039 WT3      1776     TIP3     OH2      OT      -0.834000       15.9994           0
     40040 WT3      1776     TIP3     H1       HT       0.417000        1.0080           0
     40041 WT3      1776     TIP3     H2       HT       0.417000        1.0080           0
     40042 WT3      1778     TIP3     OH2      OT      -0.834000       15.9994           0
     40043 WT3      1778     TIP3     H1       HT       0.417000        1.0080           0
     40044 WT3      1778     TIP3     H2       HT       0.417000        1.0080           0
     40045 WT3      1779     TIP3     OH2      OT      -0.834000       15.9994           0
     40046 WT3      1779     TIP3     H1       HT       0.417000        1.0080           0
     40047 WT3      1779     TIP3     H2       HT       0.417000        1.0080           0
     40048 WT3      1782     TIP3     OH2      OT      -0.834000       15.9994           0
     40049 WT3      1782     TIP3     H1       HT       0.417000        1.0080           0
     40050 WT3      1782     TIP3     H2       HT       0.417000        1.0080           0
     40051 WT3      1786     TIP3     OH2      OT      -0.834000       15.9994           0
     40052 WT3      1786     TIP3     H1       HT       0.417000        1.0080           0
     40053 WT3      1786     TIP3     H2       HT       0.417000        1.0080           0
     40054 WT3      1788     TIP3     OH2      OT      -0.834000       15.9994           0
     40055 WT3      1788     TIP3     H1       HT       0.417000        1.0080           0
     40056 WT3      1788     TIP3     H2       HT       0.417000        1.0080           0
     40057 WT3      1789     TIP3     OH2      OT      -0.834000       15.9994           0
     40058 WT3      1789     TIP3     H1       HT       0.417000        1.0080           0
     40059 WT3      1789     TIP3     H2       HT       0.417000        1.0080           0
     40060 WT3      1790     TIP3     OH2      OT      -0.834000       15.9994           0
     40061 WT3      1790     TIP3     H1       HT       0.417000        1.0080           0
     40062 WT3      1790     TIP3     H2       HT       0.417000        1.0080           0
     40063 WT3      1794     TIP3     OH2      OT      -0.834000       15.9994           0
     40064 WT3      1794     TIP3     H1       HT       0.417000        1.0080           0
     40065 WT3      1794     TIP3     H2       HT       0.417000        1.0080           0
     40066 WT3      1795     TIP3     OH2      OT      -0.834000       15.9994           0
     40067 WT3      1795     TIP3     H1       HT       0.417000        1.0080           0
     40068 WT3      1795     TIP3     H2       HT       0.417000        1.0080           0
     40069 WT3      1796     TIP3     OH2      OT      -0.834000       15.9994           0
     40070 WT3      1796     TIP3     H1       HT       0.417000        1.0080           0
     40071 WT3      1796     TIP3     H2       HT       0.417000        1.0080           0
     40072 WT3      1798     TIP3     OH2      OT      -0.834000       15.9994           0
     40073 WT3      1798     TIP3     H1       HT       0.417000        1.0080           0
     40074 WT3      1798     TIP3     H2       HT       0.417000        1.0080           0
     40075 WT3      1800     TIP3     OH2      OT      -0.834000       15.9994           0
     40076 WT3      1800     TIP3     H1       HT       0.417000        1.0080           0
     40077 WT3      1800     TIP3     H2       HT       0.417000        1.0080           0
     40078 WT3      1802     TIP3     OH2      OT      -0.834000       15.9994           0
     40079 WT3      1802     TIP3     H1       HT       0.417000        1.0080           0
     40080 WT3      1802     TIP3     H2       HT       0.417000        1.0080           0
     40081 WT3      1804     TIP3     OH2      OT      -0.834000       15.9994           0
     40082 WT3      1804     TIP3     H1       HT       0.417000        1.0080           0
     40083 WT3      1804     TIP3     H2       HT       0.417000        1.0080           0
     40084 WT3      1805     TIP3     OH2      OT      -0.834000       15.9994           0
     40085 WT3      1805     TIP3     H1       HT       0.417000        1.0080           0
     40086 WT3      1805     TIP3     H2       HT       0.417000        1.0080           0
     40087 WT3      1808     TIP3     OH2      OT      -0.834000       15.9994           0
     40088 WT3      1808     TIP3     H1       HT       0.417000        1.0080           0
     40089 WT3      1808     TIP3     H2       HT       0.417000        1.0080           0
     40090 WT3      1810     TIP3     OH2      OT      -0.834000       15.9994           0
     40091 WT3      1810     TIP3     H1       HT       0.417000        1.0080           0
     40092 WT3      1810     TIP3     H2       HT       0.417000        1.0080           0
     40093 WT3      1811     TIP3     OH2      OT      -0.834000       15.9994           0
     40094 WT3      1811     TIP3     H1       HT       0.417000        1.0080           0
     40095 WT3      1811     TIP3     H2       HT       0.417000        1.0080           0
     40096 WT3      1812     TIP3     OH2      OT      -0.834000       15.9994           0
     40097 WT3      1812     TIP3     H1       HT       0.417000        1.0080           0
     40098 WT3      1812     TIP3     H2       HT       0.417000        1.0080           0
     40099 WT3      1813     TIP3     OH2      OT      -0.834000       15.9994           0
     40100 WT3      1813     TIP3     H1       HT       0.417000        1.0080           0
     40101 WT3      1813     TIP3     H2       HT       0.417000        1.0080           0
     40102 WT3      1814     TIP3     OH2      OT      -0.834000       15.9994           0
     40103 WT3      1814     TIP3     H1       HT       0.417000        1.0080           0
     40104 WT3      1814     TIP3     H2       HT       0.417000        1.0080           0
     40105 WT3      1815     TIP3     OH2      OT      -0.834000       15.9994           0
     40106 WT3      1815     TIP3     H1       HT       0.417000        1.0080           0
     40107 WT3      1815     TIP3     H2       HT       0.417000        1.0080           0
     40108 WT3      1816     TIP3     OH2      OT      -0.834000       15.9994           0
     40109 WT3      1816     TIP3     H1       HT       0.417000        1.0080           0
     40110 WT3      1816     TIP3     H2       HT       0.417000        1.0080           0
     40111 WT3      1817     TIP3     OH2      OT      -0.834000       15.9994           0
     40112 WT3      1817     TIP3     H1       HT       0.417000        1.0080           0
     40113 WT3      1817     TIP3     H2       HT       0.417000        1.0080           0
     40114 WT3      1818     TIP3     OH2      OT      -0.834000       15.9994           0
     40115 WT3      1818     TIP3     H1       HT       0.417000        1.0080           0
     40116 WT3      1818     TIP3     H2       HT       0.417000        1.0080           0
     40117 WT3      1819     TIP3     OH2      OT      -0.834000       15.9994           0
     40118 WT3      1819     TIP3     H1       HT       0.417000        1.0080           0
     40119 WT3      1819     TIP3     H2       HT       0.417000        1.0080           0
     40120 WT3      1820     TIP3     OH2      OT      -0.834000       15.9994           0
     40121 WT3      1820     TIP3     H1       HT       0.417000        1.0080           0
     40122 WT3      1820     TIP3     H2       HT       0.417000        1.0080           0
     40123 WT3      1821     TIP3     OH2      OT      -0.834000       15.9994           0
     40124 WT3      1821     TIP3     H1       HT       0.417000        1.0080           0
     40125 WT3      1821     TIP3     H2       HT       0.417000        1.0080           0
     40126 WT3      1824     TIP3     OH2      OT      -0.834000       15.9994           0
     40127 WT3      1824     TIP3     H1       HT       0.417000        1.0080           0
     40128 WT3      1824     TIP3     H2       HT       0.417000        1.0080           0
     40129 WT3      1825     TIP3     OH2      OT      -0.834000       15.9994           0
     40130 WT3      1825     TIP3     H1       HT       0.417000        1.0080           0
     40131 WT3      1825     TIP3     H2       HT       0.417000        1.0080           0
     40132 WT3      1827     TIP3     OH2      OT      -0.834000       15.9994           0
     40133 WT3      1827     TIP3     H1       HT       0.417000        1.0080           0
     40134 WT3      1827     TIP3     H2       HT       0.417000        1.0080           0
     40135 WT3      1828     TIP3     OH2      OT      -0.834000       15.9994           0
     40136 WT3      1828     TIP3     H1       HT       0.417000        1.0080           0
     40137 WT3      1828     TIP3     H2       HT       0.417000        1.0080           0
     40138 WT3      1829     TIP3     OH2      OT      -0.834000       15.9994           0
     40139 WT3      1829     TIP3     H1       HT       0.417000        1.0080           0
     40140 WT3      1829     TIP3     H2       HT       0.417000        1.0080           0
     40141 WT3      1830     TIP3     OH2      OT      -0.834000       15.9994           0
     40142 WT3      1830     TIP3     H1       HT       0.417000        1.0080           0
     40143 WT3      1830     TIP3     H2       HT       0.417000        1.0080           0
     40144 WT3      1831     TIP3     OH2      OT      -0.834000       15.9994           0
     40145 WT3      1831     TIP3     H1       HT       0.417000        1.0080           0
     40146 WT3      1831     TIP3     H2       HT       0.417000        1.0080           0
     40147 WT3      1832     TIP3     OH2      OT      -0.834000       15.9994           0
     40148 WT3      1832     TIP3     H1       HT       0.417000        1.0080           0
     40149 WT3      1832     TIP3     H2       HT       0.417000        1.0080           0
     40150 WT3      1833     TIP3     OH2      OT      -0.834000       15.9994           0
     40151 WT3      1833     TIP3     H1       HT       0.417000        1.0080           0
     40152 WT3      1833     TIP3     H2       HT       0.417000        1.0080           0
     40153 WT3      1836     TIP3     OH2      OT      -0.834000       15.9994           0
     40154 WT3      1836     TIP3     H1       HT       0.417000        1.0080           0
     40155 WT3      1836     TIP3     H2       HT       0.417000        1.0080           0
     40156 WT3      1838     TIP3     OH2      OT      -0.834000       15.9994           0
     40157 WT3      1838     TIP3     H1       HT       0.417000        1.0080           0
     40158 WT3      1838     TIP3     H2       HT       0.417000        1.0080           0
     40159 WT3      1839     TIP3     OH2      OT      -0.834000       15.9994           0
     40160 WT3      1839     TIP3     H1       HT       0.417000        1.0080           0
     40161 WT3      1839     TIP3     H2       HT       0.417000        1.0080           0
     40162 WT3      1840     TIP3     OH2      OT      -0.834000       15.9994           0
     40163 WT3      1840     TIP3     H1       HT       0.417000        1.0080           0
     40164 WT3      1840     TIP3     H2       HT       0.417000        1.0080           0
     40165 WT3      1841     TIP3     OH2      OT      -0.834000       15.9994           0
     40166 WT3      1841     TIP3     H1       HT       0.417000        1.0080           0
     40167 WT3      1841     TIP3     H2       HT       0.417000        1.0080           0
     40168 WT3      1842     TIP3     OH2      OT      -0.834000       15.9994           0
     40169 WT3      1842     TIP3     H1       HT       0.417000        1.0080           0
     40170 WT3      1842     TIP3     H2       HT       0.417000        1.0080           0
     40171 WT3      1843     TIP3     OH2      OT      -0.834000       15.9994           0
     40172 WT3      1843     TIP3     H1       HT       0.417000        1.0080           0
     40173 WT3      1843     TIP3     H2       HT       0.417000        1.0080           0
     40174 WT3      1844     TIP3     OH2      OT      -0.834000       15.9994           0
     40175 WT3      1844     TIP3     H1       HT       0.417000        1.0080           0
     40176 WT3      1844     TIP3     H2       HT       0.417000        1.0080           0
     40177 WT3      1845     TIP3     OH2      OT      -0.834000       15.9994           0
     40178 WT3      1845     TIP3     H1       HT       0.417000        1.0080           0
     40179 WT3      1845     TIP3     H2       HT       0.417000        1.0080           0
     40180 WT3      1846     TIP3     OH2      OT      -0.834000       15.9994           0
     40181 WT3      1846     TIP3     H1       HT       0.417000        1.0080           0
     40182 WT3      1846     TIP3     H2       HT       0.417000        1.0080           0
     40183 WT3      1848     TIP3     OH2      OT      -0.834000       15.9994           0
     40184 WT3      1848     TIP3     H1       HT       0.417000        1.0080           0
     40185 WT3      1848     TIP3     H2       HT       0.417000        1.0080           0
     40186 WT3      1851     TIP3     OH2      OT      -0.834000       15.9994           0
     40187 WT3      1851     TIP3     H1       HT       0.417000        1.0080           0
     40188 WT3      1851     TIP3     H2       HT       0.417000        1.0080           0
     40189 WT3      1853     TIP3     OH2      OT      -0.834000       15.9994           0
     40190 WT3      1853     TIP3     H1       HT       0.417000        1.0080           0
     40191 WT3      1853     TIP3     H2       HT       0.417000        1.0080           0
     40192 WT3      1854     TIP3     OH2      OT      -0.834000       15.9994           0
     40193 WT3      1854     TIP3     H1       HT       0.417000        1.0080           0
     40194 WT3      1854     TIP3     H2       HT       0.417000        1.0080           0
     40195 WT3      1856     TIP3     OH2      OT      -0.834000       15.9994           0
     40196 WT3      1856     TIP3     H1       HT       0.417000        1.0080           0
     40197 WT3      1856     TIP3     H2       HT       0.417000        1.0080           0
     40198 WT3      1857     TIP3     OH2      OT      -0.834000       15.9994           0
     40199 WT3      1857     TIP3     H1       HT       0.417000        1.0080           0
     40200 WT3      1857     TIP3     H2       HT       0.417000        1.0080           0
     40201 WT3      1858     TIP3     OH2      OT      -0.834000       15.9994           0
     40202 WT3      1858     TIP3     H1       HT       0.417000        1.0080           0
     40203 WT3      1858     TIP3     H2       HT       0.417000        1.0080           0
     40204 WT3      1859     TIP3     OH2      OT      -0.834000       15.9994           0
     40205 WT3      1859     TIP3     H1       HT       0.417000        1.0080           0
     40206 WT3      1859     TIP3     H2       HT       0.417000        1.0080           0
     40207 WT3      1860     TIP3     OH2      OT      -0.834000       15.9994           0
     40208 WT3      1860     TIP3     H1       HT       0.417000        1.0080           0
     40209 WT3      1860     TIP3     H2       HT       0.417000        1.0080           0
     40210 WT3      1861     TIP3     OH2      OT      -0.834000       15.9994           0
     40211 WT3      1861     TIP3     H1       HT       0.417000        1.0080           0
     40212 WT3      1861     TIP3     H2       HT       0.417000        1.0080           0
     40213 WT3      1862     TIP3     OH2      OT      -0.834000       15.9994           0
     40214 WT3      1862     TIP3     H1       HT       0.417000        1.0080           0
     40215 WT3      1862     TIP3     H2       HT       0.417000        1.0080           0
     40216 WT3      1863     TIP3     OH2      OT      -0.834000       15.9994           0
     40217 WT3      1863     TIP3     H1       HT       0.417000        1.0080           0
     40218 WT3      1863     TIP3     H2       HT       0.417000        1.0080           0
     40219 WT3      1864     TIP3     OH2      OT      -0.834000       15.9994           0
     40220 WT3      1864     TIP3     H1       HT       0.417000        1.0080           0
     40221 WT3      1864     TIP3     H2       HT       0.417000        1.0080           0
     40222 WT3      1866     TIP3     OH2      OT      -0.834000       15.9994           0
     40223 WT3      1866     TIP3     H1       HT       0.417000        1.0080           0
     40224 WT3      1866     TIP3     H2       HT       0.417000        1.0080           0
     40225 WT3      1867     TIP3     OH2      OT      -0.834000       15.9994           0
     40226 WT3      1867     TIP3     H1       HT       0.417000        1.0080           0
     40227 WT3      1867     TIP3     H2       HT       0.417000        1.0080           0
     40228 WT3      1871     TIP3     OH2      OT      -0.834000       15.9994           0
     40229 WT3      1871     TIP3     H1       HT       0.417000        1.0080           0
     40230 WT3      1871     TIP3     H2       HT       0.417000        1.0080           0
     40231 WT3      1872     TIP3     OH2      OT      -0.834000       15.9994           0
     40232 WT3      1872     TIP3     H1       HT       0.417000        1.0080           0
     40233 WT3      1872     TIP3     H2       HT       0.417000        1.0080           0
     40234 WT3      1873     TIP3     OH2      OT      -0.834000       15.9994           0
     40235 WT3      1873     TIP3     H1       HT       0.417000        1.0080           0
     40236 WT3      1873     TIP3     H2       HT       0.417000        1.0080           0
     40237 WT3      1874     TIP3     OH2      OT      -0.834000       15.9994           0
     40238 WT3      1874     TIP3     H1       HT       0.417000        1.0080           0
     40239 WT3      1874     TIP3     H2       HT       0.417000        1.0080           0
     40240 WT3      1878     TIP3     OH2      OT      -0.834000       15.9994           0
     40241 WT3      1878     TIP3     H1       HT       0.417000        1.0080           0
     40242 WT3      1878     TIP3     H2       HT       0.417000        1.0080           0
     40243 WT3      1879     TIP3     OH2      OT      -0.834000       15.9994           0
     40244 WT3      1879     TIP3     H1       HT       0.417000        1.0080           0
     40245 WT3      1879     TIP3     H2       HT       0.417000        1.0080           0
     40246 WT3      1880     TIP3     OH2      OT      -0.834000       15.9994           0
     40247 WT3      1880     TIP3     H1       HT       0.417000        1.0080           0
     40248 WT3      1880     TIP3     H2       HT       0.417000        1.0080           0
     40249 WT3      1881     TIP3     OH2      OT      -0.834000       15.9994           0
     40250 WT3      1881     TIP3     H1       HT       0.417000        1.0080           0
     40251 WT3      1881     TIP3     H2       HT       0.417000        1.0080           0
     40252 WT3      1882     TIP3     OH2      OT      -0.834000       15.9994           0
     40253 WT3      1882     TIP3     H1       HT       0.417000        1.0080           0
     40254 WT3      1882     TIP3     H2       HT       0.417000        1.0080           0
     40255 WT3      1883     TIP3     OH2      OT      -0.834000       15.9994           0
     40256 WT3      1883     TIP3     H1       HT       0.417000        1.0080           0
     40257 WT3      1883     TIP3     H2       HT       0.417000        1.0080           0
     40258 WT3      1885     TIP3     OH2      OT      -0.834000       15.9994           0
     40259 WT3      1885     TIP3     H1       HT       0.417000        1.0080           0
     40260 WT3      1885     TIP3     H2       HT       0.417000        1.0080           0
     40261 WT3      1887     TIP3     OH2      OT      -0.834000       15.9994           0
     40262 WT3      1887     TIP3     H1       HT       0.417000        1.0080           0
     40263 WT3      1887     TIP3     H2       HT       0.417000        1.0080           0
     40264 WT3      1888     TIP3     OH2      OT      -0.834000       15.9994           0
     40265 WT3      1888     TIP3     H1       HT       0.417000        1.0080           0
     40266 WT3      1888     TIP3     H2       HT       0.417000        1.0080           0
     40267 WT3      1889     TIP3     OH2      OT      -0.834000       15.9994           0
     40268 WT3      1889     TIP3     H1       HT       0.417000        1.0080           0
     40269 WT3      1889     TIP3     H2       HT       0.417000        1.0080           0
     40270 WT3      1890     TIP3     OH2      OT      -0.834000       15.9994           0
     40271 WT3      1890     TIP3     H1       HT       0.417000        1.0080           0
     40272 WT3      1890     TIP3     H2       HT       0.417000        1.0080           0
     40273 WT3      1893     TIP3     OH2      OT      -0.834000       15.9994           0
     40274 WT3      1893     TIP3     H1       HT       0.417000        1.0080           0
     40275 WT3      1893     TIP3     H2       HT       0.417000        1.0080           0
     40276 WT3      1894     TIP3     OH2      OT      -0.834000       15.9994           0
     40277 WT3      1894     TIP3     H1       HT       0.417000        1.0080           0
     40278 WT3      1894     TIP3     H2       HT       0.417000        1.0080           0
     40279 WT3      1895     TIP3     OH2      OT      -0.834000       15.9994           0
     40280 WT3      1895     TIP3     H1       HT       0.417000        1.0080           0
     40281 WT3      1895     TIP3     H2       HT       0.417000        1.0080           0
     40282 WT3      1896     TIP3     OH2      OT      -0.834000       15.9994           0
     40283 WT3      1896     TIP3     H1       HT       0.417000        1.0080           0
     40284 WT3      1896     TIP3     H2       HT       0.417000        1.0080           0
     40285 WT3      1897     TIP3     OH2      OT      -0.834000       15.9994           0
     40286 WT3      1897     TIP3     H1       HT       0.417000        1.0080           0
     40287 WT3      1897     TIP3     H2       HT       0.417000        1.0080           0
     40288 WT3      1899     TIP3     OH2      OT      -0.834000       15.9994           0
     40289 WT3      1899     TIP3     H1       HT       0.417000        1.0080           0
     40290 WT3      1899     TIP3     H2       HT       0.417000        1.0080           0
     40291 WT3      1900     TIP3     OH2      OT      -0.834000       15.9994           0
     40292 WT3      1900     TIP3     H1       HT       0.417000        1.0080           0
     40293 WT3      1900     TIP3     H2       HT       0.417000        1.0080           0
     40294 WT3      1901     TIP3     OH2      OT      -0.834000       15.9994           0
     40295 WT3      1901     TIP3     H1       HT       0.417000        1.0080           0
     40296 WT3      1901     TIP3     H2       HT       0.417000        1.0080           0
     40297 WT3      1902     TIP3     OH2      OT      -0.834000       15.9994           0
     40298 WT3      1902     TIP3     H1       HT       0.417000        1.0080           0
     40299 WT3      1902     TIP3     H2       HT       0.417000        1.0080           0
     40300 WT3      1903     TIP3     OH2      OT      -0.834000       15.9994           0
     40301 WT3      1903     TIP3     H1       HT       0.417000        1.0080           0
     40302 WT3      1903     TIP3     H2       HT       0.417000        1.0080           0
     40303 WT3      1904     TIP3     OH2      OT      -0.834000       15.9994           0
     40304 WT3      1904     TIP3     H1       HT       0.417000        1.0080           0
     40305 WT3      1904     TIP3     H2       HT       0.417000        1.0080           0
     40306 WT3      1905     TIP3     OH2      OT      -0.834000       15.9994           0
     40307 WT3      1905     TIP3     H1       HT       0.417000        1.0080           0
     40308 WT3      1905     TIP3     H2       HT       0.417000        1.0080           0
     40309 WT3      1906     TIP3     OH2      OT      -0.834000       15.9994           0
     40310 WT3      1906     TIP3     H1       HT       0.417000        1.0080           0
     40311 WT3      1906     TIP3     H2       HT       0.417000        1.0080           0
     40312 WT3      1907     TIP3     OH2      OT      -0.834000       15.9994           0
     40313 WT3      1907     TIP3     H1       HT       0.417000        1.0080           0
     40314 WT3      1907     TIP3     H2       HT       0.417000        1.0080           0
     40315 WT3      1908     TIP3     OH2      OT      -0.834000       15.9994           0
     40316 WT3      1908     TIP3     H1       HT       0.417000        1.0080           0
     40317 WT3      1908     TIP3     H2       HT       0.417000        1.0080           0
     40318 WT3      1909     TIP3     OH2      OT      -0.834000       15.9994           0
     40319 WT3      1909     TIP3     H1       HT       0.417000        1.0080           0
     40320 WT3      1909     TIP3     H2       HT       0.417000        1.0080           0
     40321 WT3      1911     TIP3     OH2      OT      -0.834000       15.9994           0
     40322 WT3      1911     TIP3     H1       HT       0.417000        1.0080           0
     40323 WT3      1911     TIP3     H2       HT       0.417000        1.0080           0
     40324 WT3      1912     TIP3     OH2      OT      -0.834000       15.9994           0
     40325 WT3      1912     TIP3     H1       HT       0.417000        1.0080           0
     40326 WT3      1912     TIP3     H2       HT       0.417000        1.0080           0
     40327 WT3      1914     TIP3     OH2      OT      -0.834000       15.9994           0
     40328 WT3      1914     TIP3     H1       HT       0.417000        1.0080           0
     40329 WT3      1914     TIP3     H2       HT       0.417000        1.0080           0
     40330 WT3      1915     TIP3     OH2      OT      -0.834000       15.9994           0
     40331 WT3      1915     TIP3     H1       HT       0.417000        1.0080           0
     40332 WT3      1915     TIP3     H2       HT       0.417000        1.0080           0
     40333 WT3      1920     TIP3     OH2      OT      -0.834000       15.9994           0
     40334 WT3      1920     TIP3     H1       HT       0.417000        1.0080           0
     40335 WT3      1920     TIP3     H2       HT       0.417000        1.0080           0
     40336 WT3      1922     TIP3     OH2      OT      -0.834000       15.9994           0
     40337 WT3      1922     TIP3     H1       HT       0.417000        1.0080           0
     40338 WT3      1922     TIP3     H2       HT       0.417000        1.0080           0
     40339 WT3      1925     TIP3     OH2      OT      -0.834000       15.9994           0
     40340 WT3      1925     TIP3     H1       HT       0.417000        1.0080           0
     40341 WT3      1925     TIP3     H2       HT       0.417000        1.0080           0
     40342 WT3      1928     TIP3     OH2      OT      -0.834000       15.9994           0
     40343 WT3      1928     TIP3     H1       HT       0.417000        1.0080           0
     40344 WT3      1928     TIP3     H2       HT       0.417000        1.0080           0
     40345 WT3      1929     TIP3     OH2      OT      -0.834000       15.9994           0
     40346 WT3      1929     TIP3     H1       HT       0.417000        1.0080           0
     40347 WT3      1929     TIP3     H2       HT       0.417000        1.0080           0
     40348 WT3      1930     TIP3     OH2      OT      -0.834000       15.9994           0
     40349 WT3      1930     TIP3     H1       HT       0.417000        1.0080           0
     40350 WT3      1930     TIP3     H2       HT       0.417000        1.0080           0
     40351 WT3      1932     TIP3     OH2      OT      -0.834000       15.9994           0
     40352 WT3      1932     TIP3     H1       HT       0.417000        1.0080           0
     40353 WT3      1932     TIP3     H2       HT       0.417000        1.0080           0
     40354 WT3      1938     TIP3     OH2      OT      -0.834000       15.9994           0
     40355 WT3      1938     TIP3     H1       HT       0.417000        1.0080           0
     40356 WT3      1938     TIP3     H2       HT       0.417000        1.0080           0
     40357 WT3      1940     TIP3     OH2      OT      -0.834000       15.9994           0
     40358 WT3      1940     TIP3     H1       HT       0.417000        1.0080           0
     40359 WT3      1940     TIP3     H2       HT       0.417000        1.0080           0
     40360 WT3      1941     TIP3     OH2      OT      -0.834000       15.9994           0
     40361 WT3      1941     TIP3     H1       HT       0.417000        1.0080           0
     40362 WT3      1941     TIP3     H2       HT       0.417000        1.0080           0
     40363 WT3      1944     TIP3     OH2      OT      -0.834000       15.9994           0
     40364 WT3      1944     TIP3     H1       HT       0.417000        1.0080           0
     40365 WT3      1944     TIP3     H2       HT       0.417000        1.0080           0
     40366 WT3      1945     TIP3     OH2      OT      -0.834000       15.9994           0
     40367 WT3      1945     TIP3     H1       HT       0.417000        1.0080           0
     40368 WT3      1945     TIP3     H2       HT       0.417000        1.0080           0
     40369 WT3      1947     TIP3     OH2      OT      -0.834000       15.9994           0
     40370 WT3      1947     TIP3     H1       HT       0.417000        1.0080           0
     40371 WT3      1947     TIP3     H2       HT       0.417000        1.0080           0
     40372 WT3      1948     TIP3     OH2      OT      -0.834000       15.9994           0
     40373 WT3      1948     TIP3     H1       HT       0.417000        1.0080           0
     40374 WT3      1948     TIP3     H2       HT       0.417000        1.0080           0
     40375 WT3      1949     TIP3     OH2      OT      -0.834000       15.9994           0
     40376 WT3      1949     TIP3     H1       HT       0.417000        1.0080           0
     40377 WT3      1949     TIP3     H2       HT       0.417000        1.0080           0
     40378 WT3      1952     TIP3     OH2      OT      -0.834000       15.9994           0
     40379 WT3      1952     TIP3     H1       HT       0.417000        1.0080           0
     40380 WT3      1952     TIP3     H2       HT       0.417000        1.0080           0
     40381 WT3      1956     TIP3     OH2      OT      -0.834000       15.9994           0
     40382 WT3      1956     TIP3     H1       HT       0.417000        1.0080           0
     40383 WT3      1956     TIP3     H2       HT       0.417000        1.0080           0
     40384 WT3      1957     TIP3     OH2      OT      -0.834000       15.9994           0
     40385 WT3      1957     TIP3     H1       HT       0.417000        1.0080           0
     40386 WT3      1957     TIP3     H2       HT       0.417000        1.0080           0
     40387 WT3      1958     TIP3     OH2      OT      -0.834000       15.9994           0
     40388 WT3      1958     TIP3     H1       HT       0.417000        1.0080           0
     40389 WT3      1958     TIP3     H2       HT       0.417000        1.0080           0
     40390 WT3      1961     TIP3     OH2      OT      -0.834000       15.9994           0
     40391 WT3      1961     TIP3     H1       HT       0.417000        1.0080           0
     40392 WT3      1961     TIP3     H2       HT       0.417000        1.0080           0
     40393 WT3      1965     TIP3     OH2      OT      -0.834000       15.9994           0
     40394 WT3      1965     TIP3     H1       HT       0.417000        1.0080           0
     40395 WT3      1965     TIP3     H2       HT       0.417000        1.0080           0
     40396 WT3      1966     TIP3     OH2      OT      -0.834000       15.9994           0
     40397 WT3      1966     TIP3     H1       HT       0.417000        1.0080           0
     40398 WT3      1966     TIP3     H2       HT       0.417000        1.0080           0
     40399 WT3      1967     TIP3     OH2      OT      -0.834000       15.9994           0
     40400 WT3      1967     TIP3     H1       HT       0.417000        1.0080           0
     40401 WT3      1967     TIP3     H2       HT       0.417000        1.0080           0
     40402 WT3      1971     TIP3     OH2      OT      -0.834000       15.9994           0
     40403 WT3      1971     TIP3     H1       HT       0.417000        1.0080           0
     40404 WT3      1971     TIP3     H2       HT       0.417000        1.0080           0
     40405 WT3      1977     TIP3     OH2      OT      -0.834000       15.9994           0
     40406 WT3      1977     TIP3     H1       HT       0.417000        1.0080           0
     40407 WT3      1977     TIP3     H2       HT       0.417000        1.0080           0
     40408 WT3      1983     TIP3     OH2      OT      -0.834000       15.9994           0
     40409 WT3      1983     TIP3     H1       HT       0.417000        1.0080           0
     40410 WT3      1983     TIP3     H2       HT       0.417000        1.0080           0
     40411 WT3      1987     TIP3     OH2      OT      -0.834000       15.9994           0
     40412 WT3      1987     TIP3     H1       HT       0.417000        1.0080           0
     40413 WT3      1987     TIP3     H2       HT       0.417000        1.0080           0
     40414 WT3      1994     TIP3     OH2      OT      -0.834000       15.9994           0
     40415 WT3      1994     TIP3     H1       HT       0.417000        1.0080           0
     40416 WT3      1994     TIP3     H2       HT       0.417000        1.0080           0
     40417 WT3      2008     TIP3     OH2      OT      -0.834000       15.9994           0
     40418 WT3      2008     TIP3     H1       HT       0.417000        1.0080           0
     40419 WT3      2008     TIP3     H2       HT       0.417000        1.0080           0
     40420 WT3      2009     TIP3     OH2      OT      -0.834000       15.9994           0
     40421 WT3      2009     TIP3     H1       HT       0.417000        1.0080           0
     40422 WT3      2009     TIP3     H2       HT       0.417000        1.0080           0
     40423 WT3      2123     TIP3     OH2      OT      -0.834000       15.9994           0
     40424 WT3      2123     TIP3     H1       HT       0.417000        1.0080           0
     40425 WT3      2123     TIP3     H2       HT       0.417000        1.0080           0
     40426 WT3      2127     TIP3     OH2      OT      -0.834000       15.9994           0
     40427 WT3      2127     TIP3     H1       HT       0.417000        1.0080           0
     40428 WT3      2127     TIP3     H2       HT       0.417000        1.0080           0
     40429 WT3      2133     TIP3     OH2      OT      -0.834000       15.9994           0
     40430 WT3      2133     TIP3     H1       HT       0.417000        1.0080           0
     40431 WT3      2133     TIP3     H2       HT       0.417000        1.0080           0
     40432 WT3      2145     TIP3     OH2      OT      -0.834000       15.9994           0
     40433 WT3      2145     TIP3     H1       HT       0.417000        1.0080           0
     40434 WT3      2145     TIP3     H2       HT       0.417000        1.0080           0
     40435 WT3      2147     TIP3     OH2      OT      -0.834000       15.9994           0
     40436 WT3      2147     TIP3     H1       HT       0.417000        1.0080           0
     40437 WT3      2147     TIP3     H2       HT       0.417000        1.0080           0
     40438 WT3      2151     TIP3     OH2      OT      -0.834000       15.9994           0
     40439 WT3      2151     TIP3     H1       HT       0.417000        1.0080           0
     40440 WT3      2151     TIP3     H2       HT       0.417000        1.0080           0
     40441 WT3      2155     TIP3     OH2      OT      -0.834000       15.9994           0
     40442 WT3      2155     TIP3     H1       HT       0.417000        1.0080           0
     40443 WT3      2155     TIP3     H2       HT       0.417000        1.0080           0
     40444 WT3      2163     TIP3     OH2      OT      -0.834000       15.9994           0
     40445 WT3      2163     TIP3     H1       HT       0.417000        1.0080           0
     40446 WT3      2163     TIP3     H2       HT       0.417000        1.0080           0
     40447 WT3      2165     TIP3     OH2      OT      -0.834000       15.9994           0
     40448 WT3      2165     TIP3     H1       HT       0.417000        1.0080           0
     40449 WT3      2165     TIP3     H2       HT       0.417000        1.0080           0
     40450 WT3      2167     TIP3     OH2      OT      -0.834000       15.9994           0
     40451 WT3      2167     TIP3     H1       HT       0.417000        1.0080           0
     40452 WT3      2167     TIP3     H2       HT       0.417000        1.0080           0
     40453 WT3      2172     TIP3     OH2      OT      -0.834000       15.9994           0
     40454 WT3      2172     TIP3     H1       HT       0.417000        1.0080           0
     40455 WT3      2172     TIP3     H2       HT       0.417000        1.0080           0
     40456 WT3      2180     TIP3     OH2      OT      -0.834000       15.9994           0
     40457 WT3      2180     TIP3     H1       HT       0.417000        1.0080           0
     40458 WT3      2180     TIP3     H2       HT       0.417000        1.0080           0
     40459 WT3      2184     TIP3     OH2      OT      -0.834000       15.9994           0
     40460 WT3      2184     TIP3     H1       HT       0.417000        1.0080           0
     40461 WT3      2184     TIP3     H2       HT       0.417000        1.0080           0
     40462 WT3      2185     TIP3     OH2      OT      -0.834000       15.9994           0
     40463 WT3      2185     TIP3     H1       HT       0.417000        1.0080           0
     40464 WT3      2185     TIP3     H2       HT       0.417000        1.0080           0
     40465 WT3      2186     TIP3     OH2      OT      -0.834000       15.9994           0
     40466 WT3      2186     TIP3     H1       HT       0.417000        1.0080           0
     40467 WT3      2186     TIP3     H2       HT       0.417000        1.0080           0
     40468 WT3      2187     TIP3     OH2      OT      -0.834000       15.9994           0
     40469 WT3      2187     TIP3     H1       HT       0.417000        1.0080           0
     40470 WT3      2187     TIP3     H2       HT       0.417000        1.0080           0
     40471 WT3      2195     TIP3     OH2      OT      -0.834000       15.9994           0
     40472 WT3      2195     TIP3     H1       HT       0.417000        1.0080           0
     40473 WT3      2195     TIP3     H2       HT       0.417000        1.0080           0
     40474 WT3      2196     TIP3     OH2      OT      -0.834000       15.9994           0
     40475 WT3      2196     TIP3     H1       HT       0.417000        1.0080           0
     40476 WT3      2196     TIP3     H2       HT       0.417000        1.0080           0
     40477 WT3      2197     TIP3     OH2      OT      -0.834000       15.9994           0
     40478 WT3      2197     TIP3     H1       HT       0.417000        1.0080           0
     40479 WT3      2197     TIP3     H2       HT       0.417000        1.0080           0
     40480 WT3      2198     TIP3     OH2      OT      -0.834000       15.9994           0
     40481 WT3      2198     TIP3     H1       HT       0.417000        1.0080           0
     40482 WT3      2198     TIP3     H2       HT       0.417000        1.0080           0
     40483 WT3      2200     TIP3     OH2      OT      -0.834000       15.9994           0
     40484 WT3      2200     TIP3     H1       HT       0.417000        1.0080           0
     40485 WT3      2200     TIP3     H2       HT       0.417000        1.0080           0
     40486 WT3      2201     TIP3     OH2      OT      -0.834000       15.9994           0
     40487 WT3      2201     TIP3     H1       HT       0.417000        1.0080           0
     40488 WT3      2201     TIP3     H2       HT       0.417000        1.0080           0
     40489 WT3      2203     TIP3     OH2      OT      -0.834000       15.9994           0
     40490 WT3      2203     TIP3     H1       HT       0.417000        1.0080           0
     40491 WT3      2203     TIP3     H2       HT       0.417000        1.0080           0
     40492 WT3      2208     TIP3     OH2      OT      -0.834000       15.9994           0
     40493 WT3      2208     TIP3     H1       HT       0.417000        1.0080           0
     40494 WT3      2208     TIP3     H2       HT       0.417000        1.0080           0
     40495 WT3      2211     TIP3     OH2      OT      -0.834000       15.9994           0
     40496 WT3      2211     TIP3     H1       HT       0.417000        1.0080           0
     40497 WT3      2211     TIP3     H2       HT       0.417000        1.0080           0
     40498 WT3      2212     TIP3     OH2      OT      -0.834000       15.9994           0
     40499 WT3      2212     TIP3     H1       HT       0.417000        1.0080           0
     40500 WT3      2212     TIP3     H2       HT       0.417000        1.0080           0
     40501 WT3      2213     TIP3     OH2      OT      -0.834000       15.9994           0
     40502 WT3      2213     TIP3     H1       HT       0.417000        1.0080           0
     40503 WT3      2213     TIP3     H2       HT       0.417000        1.0080           0
     40504 WT3      2217     TIP3     OH2      OT      -0.834000       15.9994           0
     40505 WT3      2217     TIP3     H1       HT       0.417000        1.0080           0
     40506 WT3      2217     TIP3     H2       HT       0.417000        1.0080           0
     40507 WT3      2219     TIP3     OH2      OT      -0.834000       15.9994           0
     40508 WT3      2219     TIP3     H1       HT       0.417000        1.0080           0
     40509 WT3      2219     TIP3     H2       HT       0.417000        1.0080           0
     40510 WT3      2225     TIP3     OH2      OT      -0.834000       15.9994           0
     40511 WT3      2225     TIP3     H1       HT       0.417000        1.0080           0
     40512 WT3      2225     TIP3     H2       HT       0.417000        1.0080           0
     40513 WT3      2227     TIP3     OH2      OT      -0.834000       15.9994           0
     40514 WT3      2227     TIP3     H1       HT       0.417000        1.0080           0
     40515 WT3      2227     TIP3     H2       HT       0.417000        1.0080           0
     40516 WT3      2229     TIP3     OH2      OT      -0.834000       15.9994           0
     40517 WT3      2229     TIP3     H1       HT       0.417000        1.0080           0
     40518 WT3      2229     TIP3     H2       HT       0.417000        1.0080           0
     40519 WT3      2231     TIP3     OH2      OT      -0.834000       15.9994           0
     40520 WT3      2231     TIP3     H1       HT       0.417000        1.0080           0
     40521 WT3      2231     TIP3     H2       HT       0.417000        1.0080           0
     40522 WT3      2232     TIP3     OH2      OT      -0.834000       15.9994           0
     40523 WT3      2232     TIP3     H1       HT       0.417000        1.0080           0
     40524 WT3      2232     TIP3     H2       HT       0.417000        1.0080           0
     40525 WT3      2234     TIP3     OH2      OT      -0.834000       15.9994           0
     40526 WT3      2234     TIP3     H1       HT       0.417000        1.0080           0
     40527 WT3      2234     TIP3     H2       HT       0.417000        1.0080           0
     40528 WT3      2235     TIP3     OH2      OT      -0.834000       15.9994           0
     40529 WT3      2235     TIP3     H1       HT       0.417000        1.0080           0
     40530 WT3      2235     TIP3     H2       HT       0.417000        1.0080           0
     40531 WT3      2236     TIP3     OH2      OT      -0.834000       15.9994           0
     40532 WT3      2236     TIP3     H1       HT       0.417000        1.0080           0
     40533 WT3      2236     TIP3     H2       HT       0.417000        1.0080           0
     40534 WT3      2237     TIP3     OH2      OT      -0.834000       15.9994           0
     40535 WT3      2237     TIP3     H1       HT       0.417000        1.0080           0
     40536 WT3      2237     TIP3     H2       HT       0.417000        1.0080           0
     40537 WT3      2238     TIP3     OH2      OT      -0.834000       15.9994           0
     40538 WT3      2238     TIP3     H1       HT       0.417000        1.0080           0
     40539 WT3      2238     TIP3     H2       HT       0.417000        1.0080           0
     40540 WT3      2240     TIP3     OH2      OT      -0.834000       15.9994           0
     40541 WT3      2240     TIP3     H1       HT       0.417000        1.0080           0
     40542 WT3      2240     TIP3     H2       HT       0.417000        1.0080           0
     40543 WT3      2241     TIP3     OH2      OT      -0.834000       15.9994           0
     40544 WT3      2241     TIP3     H1       HT       0.417000        1.0080           0
     40545 WT3      2241     TIP3     H2       HT       0.417000        1.0080           0
     40546 WT3      2242     TIP3     OH2      OT      -0.834000       15.9994           0
     40547 WT3      2242     TIP3     H1       HT       0.417000        1.0080           0
     40548 WT3      2242     TIP3     H2       HT       0.417000        1.0080           0
     40549 WT3      2243     TIP3     OH2      OT      -0.834000       15.9994           0
     40550 WT3      2243     TIP3     H1       HT       0.417000        1.0080           0
     40551 WT3      2243     TIP3     H2       HT       0.417000        1.0080           0
     40552 WT3      2244     TIP3     OH2      OT      -0.834000       15.9994           0
     40553 WT3      2244     TIP3     H1       HT       0.417000        1.0080           0
     40554 WT3      2244     TIP3     H2       HT       0.417000        1.0080           0
     40555 WT3      2246     TIP3     OH2      OT      -0.834000       15.9994           0
     40556 WT3      2246     TIP3     H1       HT       0.417000        1.0080           0
     40557 WT3      2246     TIP3     H2       HT       0.417000        1.0080           0
     40558 WT3      2247     TIP3     OH2      OT      -0.834000       15.9994           0
     40559 WT3      2247     TIP3     H1       HT       0.417000        1.0080           0
     40560 WT3      2247     TIP3     H2       HT       0.417000        1.0080           0
     40561 WT3      2248     TIP3     OH2      OT      -0.834000       15.9994           0
     40562 WT3      2248     TIP3     H1       HT       0.417000        1.0080           0
     40563 WT3      2248     TIP3     H2       HT       0.417000        1.0080           0
     40564 WT3      2249     TIP3     OH2      OT      -0.834000       15.9994           0
     40565 WT3      2249     TIP3     H1       HT       0.417000        1.0080           0
     40566 WT3      2249     TIP3     H2       HT       0.417000        1.0080           0
     40567 WT3      2250     TIP3     OH2      OT      -0.834000       15.9994           0
     40568 WT3      2250     TIP3     H1       HT       0.417000        1.0080           0
     40569 WT3      2250     TIP3     H2       HT       0.417000        1.0080           0
     40570 WT3      2251     TIP3     OH2      OT      -0.834000       15.9994           0
     40571 WT3      2251     TIP3     H1       HT       0.417000        1.0080           0
     40572 WT3      2251     TIP3     H2       HT       0.417000        1.0080           0
     40573 WT3      2253     TIP3     OH2      OT      -0.834000       15.9994           0
     40574 WT3      2253     TIP3     H1       HT       0.417000        1.0080           0
     40575 WT3      2253     TIP3     H2       HT       0.417000        1.0080           0
     40576 WT3      2254     TIP3     OH2      OT      -0.834000       15.9994           0
     40577 WT3      2254     TIP3     H1       HT       0.417000        1.0080           0
     40578 WT3      2254     TIP3     H2       HT       0.417000        1.0080           0
     40579 WT3      2256     TIP3     OH2      OT      -0.834000       15.9994           0
     40580 WT3      2256     TIP3     H1       HT       0.417000        1.0080           0
     40581 WT3      2256     TIP3     H2       HT       0.417000        1.0080           0
     40582 WT3      2257     TIP3     OH2      OT      -0.834000       15.9994           0
     40583 WT3      2257     TIP3     H1       HT       0.417000        1.0080           0
     40584 WT3      2257     TIP3     H2       HT       0.417000        1.0080           0
     40585 WT3      2258     TIP3     OH2      OT      -0.834000       15.9994           0
     40586 WT3      2258     TIP3     H1       HT       0.417000        1.0080           0
     40587 WT3      2258     TIP3     H2       HT       0.417000        1.0080           0
     40588 WT3      2259     TIP3     OH2      OT      -0.834000       15.9994           0
     40589 WT3      2259     TIP3     H1       HT       0.417000        1.0080           0
     40590 WT3      2259     TIP3     H2       HT       0.417000        1.0080           0
     40591 WT3      2260     TIP3     OH2      OT      -0.834000       15.9994           0
     40592 WT3      2260     TIP3     H1       HT       0.417000        1.0080           0
     40593 WT3      2260     TIP3     H2       HT       0.417000        1.0080           0
     40594 WT3      2261     TIP3     OH2      OT      -0.834000       15.9994           0
     40595 WT3      2261     TIP3     H1       HT       0.417000        1.0080           0
     40596 WT3      2261     TIP3     H2       HT       0.417000        1.0080           0
     40597 WT3      2263     TIP3     OH2      OT      -0.834000       15.9994           0
     40598 WT3      2263     TIP3     H1       HT       0.417000        1.0080           0
     40599 WT3      2263     TIP3     H2       HT       0.417000        1.0080           0
     40600 WT3      2264     TIP3     OH2      OT      -0.834000       15.9994           0
     40601 WT3      2264     TIP3     H1       HT       0.417000        1.0080           0
     40602 WT3      2264     TIP3     H2       HT       0.417000        1.0080           0
     40603 WT3      2265     TIP3     OH2      OT      -0.834000       15.9994           0
     40604 WT3      2265     TIP3     H1       HT       0.417000        1.0080           0
     40605 WT3      2265     TIP3     H2       HT       0.417000        1.0080           0
     40606 WT3      2266     TIP3     OH2      OT      -0.834000       15.9994           0
     40607 WT3      2266     TIP3     H1       HT       0.417000        1.0080           0
     40608 WT3      2266     TIP3     H2       HT       0.417000        1.0080           0
     40609 WT3      2268     TIP3     OH2      OT      -0.834000       15.9994           0
     40610 WT3      2268     TIP3     H1       HT       0.417000        1.0080           0
     40611 WT3      2268     TIP3     H2       HT       0.417000        1.0080           0
     40612 WT3      2269     TIP3     OH2      OT      -0.834000       15.9994           0
     40613 WT3      2269     TIP3     H1       HT       0.417000        1.0080           0
     40614 WT3      2269     TIP3     H2       HT       0.417000        1.0080           0
     40615 WT3      2270     TIP3     OH2      OT      -0.834000       15.9994           0
     40616 WT3      2270     TIP3     H1       HT       0.417000        1.0080           0
     40617 WT3      2270     TIP3     H2       HT       0.417000        1.0080           0
     40618 WT3      2271     TIP3     OH2      OT      -0.834000       15.9994           0
     40619 WT3      2271     TIP3     H1       HT       0.417000        1.0080           0
     40620 WT3      2271     TIP3     H2       HT       0.417000        1.0080           0
     40621 WT3      2272     TIP3     OH2      OT      -0.834000       15.9994           0
     40622 WT3      2272     TIP3     H1       HT       0.417000        1.0080           0
     40623 WT3      2272     TIP3     H2       HT       0.417000        1.0080           0
     40624 WT3      2275     TIP3     OH2      OT      -0.834000       15.9994           0
     40625 WT3      2275     TIP3     H1       HT       0.417000        1.0080           0
     40626 WT3      2275     TIP3     H2       HT       0.417000        1.0080           0
     40627 WT3      2277     TIP3     OH2      OT      -0.834000       15.9994           0
     40628 WT3      2277     TIP3     H1       HT       0.417000        1.0080           0
     40629 WT3      2277     TIP3     H2       HT       0.417000        1.0080           0
     40630 WT3      2278     TIP3     OH2      OT      -0.834000       15.9994           0
     40631 WT3      2278     TIP3     H1       HT       0.417000        1.0080           0
     40632 WT3      2278     TIP3     H2       HT       0.417000        1.0080           0
     40633 WT3      2279     TIP3     OH2      OT      -0.834000       15.9994           0
     40634 WT3      2279     TIP3     H1       HT       0.417000        1.0080           0
     40635 WT3      2279     TIP3     H2       HT       0.417000        1.0080           0
     40636 WT3      2280     TIP3     OH2      OT      -0.834000       15.9994           0
     40637 WT3      2280     TIP3     H1       HT       0.417000        1.0080           0
     40638 WT3      2280     TIP3     H2       HT       0.417000        1.0080           0
     40639 WT3      2281     TIP3     OH2      OT      -0.834000       15.9994           0
     40640 WT3      2281     TIP3     H1       HT       0.417000        1.0080           0
     40641 WT3      2281     TIP3     H2       HT       0.417000        1.0080           0
     40642 WT3      2282     TIP3     OH2      OT      -0.834000       15.9994           0
     40643 WT3      2282     TIP3     H1       HT       0.417000        1.0080           0
     40644 WT3      2282     TIP3     H2       HT       0.417000        1.0080           0
     40645 WT3      2283     TIP3     OH2      OT      -0.834000       15.9994           0
     40646 WT3      2283     TIP3     H1       HT       0.417000        1.0080           0
     40647 WT3      2283     TIP3     H2       HT       0.417000        1.0080           0
     40648 WT3      2284     TIP3     OH2      OT      -0.834000       15.9994           0
     40649 WT3      2284     TIP3     H1       HT       0.417000        1.0080           0
     40650 WT3      2284     TIP3     H2       HT       0.417000        1.0080           0
     40651 WT3      2285     TIP3     OH2      OT      -0.834000       15.9994           0
     40652 WT3      2285     TIP3     H1       HT       0.417000        1.0080           0
     40653 WT3      2285     TIP3     H2       HT       0.417000        1.0080           0
     40654 WT3      2286     TIP3     OH2      OT      -0.834000       15.9994           0
     40655 WT3      2286     TIP3     H1       HT       0.417000        1.0080           0
     40656 WT3      2286     TIP3     H2       HT       0.417000        1.0080           0
     40657 WT3      2287     TIP3     OH2      OT      -0.834000       15.9994           0
     40658 WT3      2287     TIP3     H1       HT       0.417000        1.0080           0
     40659 WT3      2287     TIP3     H2       HT       0.417000        1.0080           0
     40660 WT3      2288     TIP3     OH2      OT      -0.834000       15.9994           0
     40661 WT3      2288     TIP3     H1       HT       0.417000        1.0080           0
     40662 WT3      2288     TIP3     H2       HT       0.417000        1.0080           0
     40663 WT3      2289     TIP3     OH2      OT      -0.834000       15.9994           0
     40664 WT3      2289     TIP3     H1       HT       0.417000        1.0080           0
     40665 WT3      2289     TIP3     H2       HT       0.417000        1.0080           0
     40666 WT3      2291     TIP3     OH2      OT      -0.834000       15.9994           0
     40667 WT3      2291     TIP3     H1       HT       0.417000        1.0080           0
     40668 WT3      2291     TIP3     H2       HT       0.417000        1.0080           0
     40669 WT3      2292     TIP3     OH2      OT      -0.834000       15.9994           0
     40670 WT3      2292     TIP3     H1       HT       0.417000        1.0080           0
     40671 WT3      2292     TIP3     H2       HT       0.417000        1.0080           0
     40672 WT3      2293     TIP3     OH2      OT      -0.834000       15.9994           0
     40673 WT3      2293     TIP3     H1       HT       0.417000        1.0080           0
     40674 WT3      2293     TIP3     H2       HT       0.417000        1.0080           0
     40675 WT3      2294     TIP3     OH2      OT      -0.834000       15.9994           0
     40676 WT3      2294     TIP3     H1       HT       0.417000        1.0080           0
     40677 WT3      2294     TIP3     H2       HT       0.417000        1.0080           0
     40678 WT3      2295     TIP3     OH2      OT      -0.834000       15.9994           0
     40679 WT3      2295     TIP3     H1       HT       0.417000        1.0080           0
     40680 WT3      2295     TIP3     H2       HT       0.417000        1.0080           0
     40681 WT3      2296     TIP3     OH2      OT      -0.834000       15.9994           0
     40682 WT3      2296     TIP3     H1       HT       0.417000        1.0080           0
     40683 WT3      2296     TIP3     H2       HT       0.417000        1.0080           0
     40684 WT3      2297     TIP3     OH2      OT      -0.834000       15.9994           0
     40685 WT3      2297     TIP3     H1       HT       0.417000        1.0080           0
     40686 WT3      2297     TIP3     H2       HT       0.417000        1.0080           0
     40687 WT3      2298     TIP3     OH2      OT      -0.834000       15.9994           0
     40688 WT3      2298     TIP3     H1       HT       0.417000        1.0080           0
     40689 WT3      2298     TIP3     H2       HT       0.417000        1.0080           0
     40690 WT3      2300     TIP3     OH2      OT      -0.834000       15.9994           0
     40691 WT3      2300     TIP3     H1       HT       0.417000        1.0080           0
     40692 WT3      2300     TIP3     H2       HT       0.417000        1.0080           0
     40693 WT3      2301     TIP3     OH2      OT      -0.834000       15.9994           0
     40694 WT3      2301     TIP3     H1       HT       0.417000        1.0080           0
     40695 WT3      2301     TIP3     H2       HT       0.417000        1.0080           0
     40696 WT3      2302     TIP3     OH2      OT      -0.834000       15.9994           0
     40697 WT3      2302     TIP3     H1       HT       0.417000        1.0080           0
     40698 WT3      2302     TIP3     H2       HT       0.417000        1.0080           0
     40699 WT3      2303     TIP3     OH2      OT      -0.834000       15.9994           0
     40700 WT3      2303     TIP3     H1       HT       0.417000        1.0080           0
     40701 WT3      2303     TIP3     H2       HT       0.417000        1.0080           0
     40702 WT3      2304     TIP3     OH2      OT      -0.834000       15.9994           0
     40703 WT3      2304     TIP3     H1       HT       0.417000        1.0080           0
     40704 WT3      2304     TIP3     H2       HT       0.417000        1.0080           0
     40705 WT3      2305     TIP3     OH2      OT      -0.834000       15.9994           0
     40706 WT3      2305     TIP3     H1       HT       0.417000        1.0080           0
     40707 WT3      2305     TIP3     H2       HT       0.417000        1.0080           0
     40708 WT3      2306     TIP3     OH2      OT      -0.834000       15.9994           0
     40709 WT3      2306     TIP3     H1       HT       0.417000        1.0080           0
     40710 WT3      2306     TIP3     H2       HT       0.417000        1.0080           0
     40711 WT3      2307     TIP3     OH2      OT      -0.834000       15.9994           0
     40712 WT3      2307     TIP3     H1       HT       0.417000        1.0080           0
     40713 WT3      2307     TIP3     H2       HT       0.417000        1.0080           0
     40714 WT3      2308     TIP3     OH2      OT      -0.834000       15.9994           0
     40715 WT3      2308     TIP3     H1       HT       0.417000        1.0080           0
     40716 WT3      2308     TIP3     H2       HT       0.417000        1.0080           0
     40717 WT3      2309     TIP3     OH2      OT      -0.834000       15.9994           0
     40718 WT3      2309     TIP3     H1       HT       0.417000        1.0080           0
     40719 WT3      2309     TIP3     H2       HT       0.417000        1.0080           0
     40720 WT3      2310     TIP3     OH2      OT      -0.834000       15.9994           0
     40721 WT3      2310     TIP3     H1       HT       0.417000        1.0080           0
     40722 WT3      2310     TIP3     H2       HT       0.417000        1.0080           0
     40723 WT3      2311     TIP3     OH2      OT      -0.834000       15.9994           0
     40724 WT3      2311     TIP3     H1       HT       0.417000        1.0080           0
     40725 WT3      2311     TIP3     H2       HT       0.417000        1.0080           0
     40726 WT3      2313     TIP3     OH2      OT      -0.834000       15.9994           0
     40727 WT3      2313     TIP3     H1       HT       0.417000        1.0080           0
     40728 WT3      2313     TIP3     H2       HT       0.417000        1.0080           0
     40729 WT3      2314     TIP3     OH2      OT      -0.834000       15.9994           0
     40730 WT3      2314     TIP3     H1       HT       0.417000        1.0080           0
     40731 WT3      2314     TIP3     H2       HT       0.417000        1.0080           0
     40732 WT3      2315     TIP3     OH2      OT      -0.834000       15.9994           0
     40733 WT3      2315     TIP3     H1       HT       0.417000        1.0080           0
     40734 WT3      2315     TIP3     H2       HT       0.417000        1.0080           0
     40735 WT3      2316     TIP3     OH2      OT      -0.834000       15.9994           0
     40736 WT3      2316     TIP3     H1       HT       0.417000        1.0080           0
     40737 WT3      2316     TIP3     H2       HT       0.417000        1.0080           0
     40738 WT3      2317     TIP3     OH2      OT      -0.834000       15.9994           0
     40739 WT3      2317     TIP3     H1       HT       0.417000        1.0080           0
     40740 WT3      2317     TIP3     H2       HT       0.417000        1.0080           0
     40741 WT3      2319     TIP3     OH2      OT      -0.834000       15.9994           0
     40742 WT3      2319     TIP3     H1       HT       0.417000        1.0080           0
     40743 WT3      2319     TIP3     H2       HT       0.417000        1.0080           0
     40744 WT3      2322     TIP3     OH2      OT      -0.834000       15.9994           0
     40745 WT3      2322     TIP3     H1       HT       0.417000        1.0080           0
     40746 WT3      2322     TIP3     H2       HT       0.417000        1.0080           0
     40747 WT3      2324     TIP3     OH2      OT      -0.834000       15.9994           0
     40748 WT3      2324     TIP3     H1       HT       0.417000        1.0080           0
     40749 WT3      2324     TIP3     H2       HT       0.417000        1.0080           0
     40750 WT3      2325     TIP3     OH2      OT      -0.834000       15.9994           0
     40751 WT3      2325     TIP3     H1       HT       0.417000        1.0080           0
     40752 WT3      2325     TIP3     H2       HT       0.417000        1.0080           0
     40753 WT3      2326     TIP3     OH2      OT      -0.834000       15.9994           0
     40754 WT3      2326     TIP3     H1       HT       0.417000        1.0080           0
     40755 WT3      2326     TIP3     H2       HT       0.417000        1.0080           0
     40756 WT3      2329     TIP3     OH2      OT      -0.834000       15.9994           0
     40757 WT3      2329     TIP3     H1       HT       0.417000        1.0080           0
     40758 WT3      2329     TIP3     H2       HT       0.417000        1.0080           0
     40759 WT3      2331     TIP3     OH2      OT      -0.834000       15.9994           0
     40760 WT3      2331     TIP3     H1       HT       0.417000        1.0080           0
     40761 WT3      2331     TIP3     H2       HT       0.417000        1.0080           0
     40762 WT3      2332     TIP3     OH2      OT      -0.834000       15.9994           0
     40763 WT3      2332     TIP3     H1       HT       0.417000        1.0080           0
     40764 WT3      2332     TIP3     H2       HT       0.417000        1.0080           0
     40765 WT3      2334     TIP3     OH2      OT      -0.834000       15.9994           0
     40766 WT3      2334     TIP3     H1       HT       0.417000        1.0080           0
     40767 WT3      2334     TIP3     H2       HT       0.417000        1.0080           0
     40768 WT3      2335     TIP3     OH2      OT      -0.834000       15.9994           0
     40769 WT3      2335     TIP3     H1       HT       0.417000        1.0080           0
     40770 WT3      2335     TIP3     H2       HT       0.417000        1.0080           0
     40771 WT3      2339     TIP3     OH2      OT      -0.834000       15.9994           0
     40772 WT3      2339     TIP3     H1       HT       0.417000        1.0080           0
     40773 WT3      2339     TIP3     H2       HT       0.417000        1.0080           0
     40774 WT3      2340     TIP3     OH2      OT      -0.834000       15.9994           0
     40775 WT3      2340     TIP3     H1       HT       0.417000        1.0080           0
     40776 WT3      2340     TIP3     H2       HT       0.417000        1.0080           0
     40777 WT3      2341     TIP3     OH2      OT      -0.834000       15.9994           0
     40778 WT3      2341     TIP3     H1       HT       0.417000        1.0080           0
     40779 WT3      2341     TIP3     H2       HT       0.417000        1.0080           0
     40780 WT3      2342     TIP3     OH2      OT      -0.834000       15.9994           0
     40781 WT3      2342     TIP3     H1       HT       0.417000        1.0080           0
     40782 WT3      2342     TIP3     H2       HT       0.417000        1.0080           0
     40783 WT3      2344     TIP3     OH2      OT      -0.834000       15.9994           0
     40784 WT3      2344     TIP3     H1       HT       0.417000        1.0080           0
     40785 WT3      2344     TIP3     H2       HT       0.417000        1.0080           0
     40786 WT3      2345     TIP3     OH2      OT      -0.834000       15.9994           0
     40787 WT3      2345     TIP3     H1       HT       0.417000        1.0080           0
     40788 WT3      2345     TIP3     H2       HT       0.417000        1.0080           0
     40789 WT3      2346     TIP3     OH2      OT      -0.834000       15.9994           0
     40790 WT3      2346     TIP3     H1       HT       0.417000        1.0080           0
     40791 WT3      2346     TIP3     H2       HT       0.417000        1.0080           0
     40792 WT3      2347     TIP3     OH2      OT      -0.834000       15.9994           0
     40793 WT3      2347     TIP3     H1       HT       0.417000        1.0080           0
     40794 WT3      2347     TIP3     H2       HT       0.417000        1.0080           0
     40795 WT3      2348     TIP3     OH2      OT      -0.834000       15.9994           0
     40796 WT3      2348     TIP3     H1       HT       0.417000        1.0080           0
     40797 WT3      2348     TIP3     H2       HT       0.417000        1.0080           0
     40798 WT3      2351     TIP3     OH2      OT      -0.834000       15.9994           0
     40799 WT3      2351     TIP3     H1       HT       0.417000        1.0080           0
     40800 WT3      2351     TIP3     H2       HT       0.417000        1.0080           0
     40801 WT3      2352     TIP3     OH2      OT      -0.834000       15.9994           0
     40802 WT3      2352     TIP3     H1       HT       0.417000        1.0080           0
     40803 WT3      2352     TIP3     H2       HT       0.417000        1.0080           0
     40804 WT3      2355     TIP3     OH2      OT      -0.834000       15.9994           0
     40805 WT3      2355     TIP3     H1       HT       0.417000        1.0080           0
     40806 WT3      2355     TIP3     H2       HT       0.417000        1.0080           0
     40807 WT3      2356     TIP3     OH2      OT      -0.834000       15.9994           0
     40808 WT3      2356     TIP3     H1       HT       0.417000        1.0080           0
     40809 WT3      2356     TIP3     H2       HT       0.417000        1.0080           0
     40810 WT3      2357     TIP3     OH2      OT      -0.834000       15.9994           0
     40811 WT3      2357     TIP3     H1       HT       0.417000        1.0080           0
     40812 WT3      2357     TIP3     H2       HT       0.417000        1.0080           0
     40813 WT3      2358     TIP3     OH2      OT      -0.834000       15.9994           0
     40814 WT3      2358     TIP3     H1       HT       0.417000        1.0080           0
     40815 WT3      2358     TIP3     H2       HT       0.417000        1.0080           0
     40816 WT3      2359     TIP3     OH2      OT      -0.834000       15.9994           0
     40817 WT3      2359     TIP3     H1       HT       0.417000        1.0080           0
     40818 WT3      2359     TIP3     H2       HT       0.417000        1.0080           0
     40819 WT3      2362     TIP3     OH2      OT      -0.834000       15.9994           0
     40820 WT3      2362     TIP3     H1       HT       0.417000        1.0080           0
     40821 WT3      2362     TIP3     H2       HT       0.417000        1.0080           0
     40822 WT3      2363     TIP3     OH2      OT      -0.834000       15.9994           0
     40823 WT3      2363     TIP3     H1       HT       0.417000        1.0080           0
     40824 WT3      2363     TIP3     H2       HT       0.417000        1.0080           0
     40825 WT3      2365     TIP3     OH2      OT      -0.834000       15.9994           0
     40826 WT3      2365     TIP3     H1       HT       0.417000        1.0080           0
     40827 WT3      2365     TIP3     H2       HT       0.417000        1.0080           0
     40828 WT3      2368     TIP3     OH2      OT      -0.834000       15.9994           0
     40829 WT3      2368     TIP3     H1       HT       0.417000        1.0080           0
     40830 WT3      2368     TIP3     H2       HT       0.417000        1.0080           0
     40831 WT3      2369     TIP3     OH2      OT      -0.834000       15.9994           0
     40832 WT3      2369     TIP3     H1       HT       0.417000        1.0080           0
     40833 WT3      2369     TIP3     H2       HT       0.417000        1.0080           0
     40834 WT3      2371     TIP3     OH2      OT      -0.834000       15.9994           0
     40835 WT3      2371     TIP3     H1       HT       0.417000        1.0080           0
     40836 WT3      2371     TIP3     H2       HT       0.417000        1.0080           0
     40837 WT3      2375     TIP3     OH2      OT      -0.834000       15.9994           0
     40838 WT3      2375     TIP3     H1       HT       0.417000        1.0080           0
     40839 WT3      2375     TIP3     H2       HT       0.417000        1.0080           0
     40840 WT3      2377     TIP3     OH2      OT      -0.834000       15.9994           0
     40841 WT3      2377     TIP3     H1       HT       0.417000        1.0080           0
     40842 WT3      2377     TIP3     H2       HT       0.417000        1.0080           0
     40843 WT3      2380     TIP3     OH2      OT      -0.834000       15.9994           0
     40844 WT3      2380     TIP3     H1       HT       0.417000        1.0080           0
     40845 WT3      2380     TIP3     H2       HT       0.417000        1.0080           0
     40846 WT3      2381     TIP3     OH2      OT      -0.834000       15.9994           0
     40847 WT3      2381     TIP3     H1       HT       0.417000        1.0080           0
     40848 WT3      2381     TIP3     H2       HT       0.417000        1.0080           0
     40849 WT3      2386     TIP3     OH2      OT      -0.834000       15.9994           0
     40850 WT3      2386     TIP3     H1       HT       0.417000        1.0080           0
     40851 WT3      2386     TIP3     H2       HT       0.417000        1.0080           0
     40852 WT3      2390     TIP3     OH2      OT      -0.834000       15.9994           0
     40853 WT3      2390     TIP3     H1       HT       0.417000        1.0080           0
     40854 WT3      2390     TIP3     H2       HT       0.417000        1.0080           0
     40855 WT3      2394     TIP3     OH2      OT      -0.834000       15.9994           0
     40856 WT3      2394     TIP3     H1       HT       0.417000        1.0080           0
     40857 WT3      2394     TIP3     H2       HT       0.417000        1.0080           0
     40858 WT3      2402     TIP3     OH2      OT      -0.834000       15.9994           0
     40859 WT3      2402     TIP3     H1       HT       0.417000        1.0080           0
     40860 WT3      2402     TIP3     H2       HT       0.417000        1.0080           0
     40861 WT3      2406     TIP3     OH2      OT      -0.834000       15.9994           0
     40862 WT3      2406     TIP3     H1       HT       0.417000        1.0080           0
     40863 WT3      2406     TIP3     H2       HT       0.417000        1.0080           0
     40864 WT3      2407     TIP3     OH2      OT      -0.834000       15.9994           0
     40865 WT3      2407     TIP3     H1       HT       0.417000        1.0080           0
     40866 WT3      2407     TIP3     H2       HT       0.417000        1.0080           0
     40867 WT3      2411     TIP3     OH2      OT      -0.834000       15.9994           0
     40868 WT3      2411     TIP3     H1       HT       0.417000        1.0080           0
     40869 WT3      2411     TIP3     H2       HT       0.417000        1.0080           0
     40870 WT3      2412     TIP3     OH2      OT      -0.834000       15.9994           0
     40871 WT3      2412     TIP3     H1       HT       0.417000        1.0080           0
     40872 WT3      2412     TIP3     H2       HT       0.417000        1.0080           0
     40873 WT3      2414     TIP3     OH2      OT      -0.834000       15.9994           0
     40874 WT3      2414     TIP3     H1       HT       0.417000        1.0080           0
     40875 WT3      2414     TIP3     H2       HT       0.417000        1.0080           0
     40876 WT3      2418     TIP3     OH2      OT      -0.834000       15.9994           0
     40877 WT3      2418     TIP3     H1       HT       0.417000        1.0080           0
     40878 WT3      2418     TIP3     H2       HT       0.417000        1.0080           0
     40879 WT3      2432     TIP3     OH2      OT      -0.834000       15.9994           0
     40880 WT3      2432     TIP3     H1       HT       0.417000        1.0080           0
     40881 WT3      2432     TIP3     H2       HT       0.417000        1.0080           0
     40882 WT3      2434     TIP3     OH2      OT      -0.834000       15.9994           0
     40883 WT3      2434     TIP3     H1       HT       0.417000        1.0080           0
     40884 WT3      2434     TIP3     H2       HT       0.417000        1.0080           0
     40885 WT3      2449     TIP3     OH2      OT      -0.834000       15.9994           0
     40886 WT3      2449     TIP3     H1       HT       0.417000        1.0080           0
     40887 WT3      2449     TIP3     H2       HT       0.417000        1.0080           0
     40888 WT3      2451     TIP3     OH2      OT      -0.834000       15.9994           0
     40889 WT3      2451     TIP3     H1       HT       0.417000        1.0080           0
     40890 WT3      2451     TIP3     H2       HT       0.417000        1.0080           0
     40891 WT3      2453     TIP3     OH2      OT      -0.834000       15.9994           0
     40892 WT3      2453     TIP3     H1       HT       0.417000        1.0080           0
     40893 WT3      2453     TIP3     H2       HT       0.417000        1.0080           0
     40894 WT3      2457     TIP3     OH2      OT      -0.834000       15.9994           0
     40895 WT3      2457     TIP3     H1       HT       0.417000        1.0080           0
     40896 WT3      2457     TIP3     H2       HT       0.417000        1.0080           0
     40897 WT3      2475     TIP3     OH2      OT      -0.834000       15.9994           0
     40898 WT3      2475     TIP3     H1       HT       0.417000        1.0080           0
     40899 WT3      2475     TIP3     H2       HT       0.417000        1.0080           0
     40900 WT3      2561     TIP3     OH2      OT      -0.834000       15.9994           0
     40901 WT3      2561     TIP3     H1       HT       0.417000        1.0080           0
     40902 WT3      2561     TIP3     H2       HT       0.417000        1.0080           0
     40903 WT3      2587     TIP3     OH2      OT      -0.834000       15.9994           0
     40904 WT3      2587     TIP3     H1       HT       0.417000        1.0080           0
     40905 WT3      2587     TIP3     H2       HT       0.417000        1.0080           0
     40906 WT3      2590     TIP3     OH2      OT      -0.834000       15.9994           0
     40907 WT3      2590     TIP3     H1       HT       0.417000        1.0080           0
     40908 WT3      2590     TIP3     H2       HT       0.417000        1.0080           0
     40909 WT3      2591     TIP3     OH2      OT      -0.834000       15.9994           0
     40910 WT3      2591     TIP3     H1       HT       0.417000        1.0080           0
     40911 WT3      2591     TIP3     H2       HT       0.417000        1.0080           0
     40912 WT3      2601     TIP3     OH2      OT      -0.834000       15.9994           0
     40913 WT3      2601     TIP3     H1       HT       0.417000        1.0080           0
     40914 WT3      2601     TIP3     H2       HT       0.417000        1.0080           0
     40915 WT3      2606     TIP3     OH2      OT      -0.834000       15.9994           0
     40916 WT3      2606     TIP3     H1       HT       0.417000        1.0080           0
     40917 WT3      2606     TIP3     H2       HT       0.417000        1.0080           0
     40918 WT3      2607     TIP3     OH2      OT      -0.834000       15.9994           0
     40919 WT3      2607     TIP3     H1       HT       0.417000        1.0080           0
     40920 WT3      2607     TIP3     H2       HT       0.417000        1.0080           0
     40921 WT3      2608     TIP3     OH2      OT      -0.834000       15.9994           0
     40922 WT3      2608     TIP3     H1       HT       0.417000        1.0080           0
     40923 WT3      2608     TIP3     H2       HT       0.417000        1.0080           0
     40924 WT3      2610     TIP3     OH2      OT      -0.834000       15.9994           0
     40925 WT3      2610     TIP3     H1       HT       0.417000        1.0080           0
     40926 WT3      2610     TIP3     H2       HT       0.417000        1.0080           0
     40927 WT3      2616     TIP3     OH2      OT      -0.834000       15.9994           0
     40928 WT3      2616     TIP3     H1       HT       0.417000        1.0080           0
     40929 WT3      2616     TIP3     H2       HT       0.417000        1.0080           0
     40930 WT3      2617     TIP3     OH2      OT      -0.834000       15.9994           0
     40931 WT3      2617     TIP3     H1       HT       0.417000        1.0080           0
     40932 WT3      2617     TIP3     H2       HT       0.417000        1.0080           0
     40933 WT3      2621     TIP3     OH2      OT      -0.834000       15.9994           0
     40934 WT3      2621     TIP3     H1       HT       0.417000        1.0080           0
     40935 WT3      2621     TIP3     H2       HT       0.417000        1.0080           0
     40936 WT3      2624     TIP3     OH2      OT      -0.834000       15.9994           0
     40937 WT3      2624     TIP3     H1       HT       0.417000        1.0080           0
     40938 WT3      2624     TIP3     H2       HT       0.417000        1.0080           0
     40939 WT3      2626     TIP3     OH2      OT      -0.834000       15.9994           0
     40940 WT3      2626     TIP3     H1       HT       0.417000        1.0080           0
     40941 WT3      2626     TIP3     H2       HT       0.417000        1.0080           0
     40942 WT3      2628     TIP3     OH2      OT      -0.834000       15.9994           0
     40943 WT3      2628     TIP3     H1       HT       0.417000        1.0080           0
     40944 WT3      2628     TIP3     H2       HT       0.417000        1.0080           0
     40945 WT3      2629     TIP3     OH2      OT      -0.834000       15.9994           0
     40946 WT3      2629     TIP3     H1       HT       0.417000        1.0080           0
     40947 WT3      2629     TIP3     H2       HT       0.417000        1.0080           0
     40948 WT3      2630     TIP3     OH2      OT      -0.834000       15.9994           0
     40949 WT3      2630     TIP3     H1       HT       0.417000        1.0080           0
     40950 WT3      2630     TIP3     H2       HT       0.417000        1.0080           0
     40951 WT3      2632     TIP3     OH2      OT      -0.834000       15.9994           0
     40952 WT3      2632     TIP3     H1       HT       0.417000        1.0080           0
     40953 WT3      2632     TIP3     H2       HT       0.417000        1.0080           0
     40954 WT3      2633     TIP3     OH2      OT      -0.834000       15.9994           0
     40955 WT3      2633     TIP3     H1       HT       0.417000        1.0080           0
     40956 WT3      2633     TIP3     H2       HT       0.417000        1.0080           0
     40957 WT3      2634     TIP3     OH2      OT      -0.834000       15.9994           0
     40958 WT3      2634     TIP3     H1       HT       0.417000        1.0080           0
     40959 WT3      2634     TIP3     H2       HT       0.417000        1.0080           0
     40960 WT3      2635     TIP3     OH2      OT      -0.834000       15.9994           0
     40961 WT3      2635     TIP3     H1       HT       0.417000        1.0080           0
     40962 WT3      2635     TIP3     H2       HT       0.417000        1.0080           0
     40963 WT3      2638     TIP3     OH2      OT      -0.834000       15.9994           0
     40964 WT3      2638     TIP3     H1       HT       0.417000        1.0080           0
     40965 WT3      2638     TIP3     H2       HT       0.417000        1.0080           0
     40966 WT3      2641     TIP3     OH2      OT      -0.834000       15.9994           0
     40967 WT3      2641     TIP3     H1       HT       0.417000        1.0080           0
     40968 WT3      2641     TIP3     H2       HT       0.417000        1.0080           0
     40969 WT3      2644     TIP3     OH2      OT      -0.834000       15.9994           0
     40970 WT3      2644     TIP3     H1       HT       0.417000        1.0080           0
     40971 WT3      2644     TIP3     H2       HT       0.417000        1.0080           0
     40972 WT3      2646     TIP3     OH2      OT      -0.834000       15.9994           0
     40973 WT3      2646     TIP3     H1       HT       0.417000        1.0080           0
     40974 WT3      2646     TIP3     H2       HT       0.417000        1.0080           0
     40975 WT3      2649     TIP3     OH2      OT      -0.834000       15.9994           0
     40976 WT3      2649     TIP3     H1       HT       0.417000        1.0080           0
     40977 WT3      2649     TIP3     H2       HT       0.417000        1.0080           0
     40978 WT3      2650     TIP3     OH2      OT      -0.834000       15.9994           0
     40979 WT3      2650     TIP3     H1       HT       0.417000        1.0080           0
     40980 WT3      2650     TIP3     H2       HT       0.417000        1.0080           0
     40981 WT3      2652     TIP3     OH2      OT      -0.834000       15.9994           0
     40982 WT3      2652     TIP3     H1       HT       0.417000        1.0080           0
     40983 WT3      2652     TIP3     H2       HT       0.417000        1.0080           0
     40984 WT3      2654     TIP3     OH2      OT      -0.834000       15.9994           0
     40985 WT3      2654     TIP3     H1       HT       0.417000        1.0080           0
     40986 WT3      2654     TIP3     H2       HT       0.417000        1.0080           0
     40987 WT3      2656     TIP3     OH2      OT      -0.834000       15.9994           0
     40988 WT3      2656     TIP3     H1       HT       0.417000        1.0080           0
     40989 WT3      2656     TIP3     H2       HT       0.417000        1.0080           0
     40990 WT3      2657     TIP3     OH2      OT      -0.834000       15.9994           0
     40991 WT3      2657     TIP3     H1       HT       0.417000        1.0080           0
     40992 WT3      2657     TIP3     H2       HT       0.417000        1.0080           0
     40993 WT3      2659     TIP3     OH2      OT      -0.834000       15.9994           0
     40994 WT3      2659     TIP3     H1       HT       0.417000        1.0080           0
     40995 WT3      2659     TIP3     H2       HT       0.417000        1.0080           0
     40996 WT3      2660     TIP3     OH2      OT      -0.834000       15.9994           0
     40997 WT3      2660     TIP3     H1       HT       0.417000        1.0080           0
     40998 WT3      2660     TIP3     H2       HT       0.417000        1.0080           0
     40999 WT3      2661     TIP3     OH2      OT      -0.834000       15.9994           0
     41000 WT3      2661     TIP3     H1       HT       0.417000        1.0080           0
     41001 WT3      2661     TIP3     H2       HT       0.417000        1.0080           0
     41002 WT3      2662     TIP3     OH2      OT      -0.834000       15.9994           0
     41003 WT3      2662     TIP3     H1       HT       0.417000        1.0080           0
     41004 WT3      2662     TIP3     H2       HT       0.417000        1.0080           0
     41005 WT3      2664     TIP3     OH2      OT      -0.834000       15.9994           0
     41006 WT3      2664     TIP3     H1       HT       0.417000        1.0080           0
     41007 WT3      2664     TIP3     H2       HT       0.417000        1.0080           0
     41008 WT3      2665     TIP3     OH2      OT      -0.834000       15.9994           0
     41009 WT3      2665     TIP3     H1       HT       0.417000        1.0080           0
     41010 WT3      2665     TIP3     H2       HT       0.417000        1.0080           0
     41011 WT3      2666     TIP3     OH2      OT      -0.834000       15.9994           0
     41012 WT3      2666     TIP3     H1       HT       0.417000        1.0080           0
     41013 WT3      2666     TIP3     H2       HT       0.417000        1.0080           0
     41014 WT3      2667     TIP3     OH2      OT      -0.834000       15.9994           0
     41015 WT3      2667     TIP3     H1       HT       0.417000        1.0080           0
     41016 WT3      2667     TIP3     H2       HT       0.417000        1.0080           0
     41017 WT3      2669     TIP3     OH2      OT      -0.834000       15.9994           0
     41018 WT3      2669     TIP3     H1       HT       0.417000        1.0080           0
     41019 WT3      2669     TIP3     H2       HT       0.417000        1.0080           0
     41020 WT3      2670     TIP3     OH2      OT      -0.834000       15.9994           0
     41021 WT3      2670     TIP3     H1       HT       0.417000        1.0080           0
     41022 WT3      2670     TIP3     H2       HT       0.417000        1.0080           0
     41023 WT3      2672     TIP3     OH2      OT      -0.834000       15.9994           0
     41024 WT3      2672     TIP3     H1       HT       0.417000        1.0080           0
     41025 WT3      2672     TIP3     H2       HT       0.417000        1.0080           0
     41026 WT3      2673     TIP3     OH2      OT      -0.834000       15.9994           0
     41027 WT3      2673     TIP3     H1       HT       0.417000        1.0080           0
     41028 WT3      2673     TIP3     H2       HT       0.417000        1.0080           0
     41029 WT3      2674     TIP3     OH2      OT      -0.834000       15.9994           0
     41030 WT3      2674     TIP3     H1       HT       0.417000        1.0080           0
     41031 WT3      2674     TIP3     H2       HT       0.417000        1.0080           0
     41032 WT3      2675     TIP3     OH2      OT      -0.834000       15.9994           0
     41033 WT3      2675     TIP3     H1       HT       0.417000        1.0080           0
     41034 WT3      2675     TIP3     H2       HT       0.417000        1.0080           0
     41035 WT3      2676     TIP3     OH2      OT      -0.834000       15.9994           0
     41036 WT3      2676     TIP3     H1       HT       0.417000        1.0080           0
     41037 WT3      2676     TIP3     H2       HT       0.417000        1.0080           0
     41038 WT3      2677     TIP3     OH2      OT      -0.834000       15.9994           0
     41039 WT3      2677     TIP3     H1       HT       0.417000        1.0080           0
     41040 WT3      2677     TIP3     H2       HT       0.417000        1.0080           0
     41041 WT3      2678     TIP3     OH2      OT      -0.834000       15.9994           0
     41042 WT3      2678     TIP3     H1       HT       0.417000        1.0080           0
     41043 WT3      2678     TIP3     H2       HT       0.417000        1.0080           0
     41044 WT3      2680     TIP3     OH2      OT      -0.834000       15.9994           0
     41045 WT3      2680     TIP3     H1       HT       0.417000        1.0080           0
     41046 WT3      2680     TIP3     H2       HT       0.417000        1.0080           0
     41047 WT3      2681     TIP3     OH2      OT      -0.834000       15.9994           0
     41048 WT3      2681     TIP3     H1       HT       0.417000        1.0080           0
     41049 WT3      2681     TIP3     H2       HT       0.417000        1.0080           0
     41050 WT3      2682     TIP3     OH2      OT      -0.834000       15.9994           0
     41051 WT3      2682     TIP3     H1       HT       0.417000        1.0080           0
     41052 WT3      2682     TIP3     H2       HT       0.417000        1.0080           0
     41053 WT3      2683     TIP3     OH2      OT      -0.834000       15.9994           0
     41054 WT3      2683     TIP3     H1       HT       0.417000        1.0080           0
     41055 WT3      2683     TIP3     H2       HT       0.417000        1.0080           0
     41056 WT3      2684     TIP3     OH2      OT      -0.834000       15.9994           0
     41057 WT3      2684     TIP3     H1       HT       0.417000        1.0080           0
     41058 WT3      2684     TIP3     H2       HT       0.417000        1.0080           0
     41059 WT3      2686     TIP3     OH2      OT      -0.834000       15.9994           0
     41060 WT3      2686     TIP3     H1       HT       0.417000        1.0080           0
     41061 WT3      2686     TIP3     H2       HT       0.417000        1.0080           0
     41062 WT3      2688     TIP3     OH2      OT      -0.834000       15.9994           0
     41063 WT3      2688     TIP3     H1       HT       0.417000        1.0080           0
     41064 WT3      2688     TIP3     H2       HT       0.417000        1.0080           0
     41065 WT3      2689     TIP3     OH2      OT      -0.834000       15.9994           0
     41066 WT3      2689     TIP3     H1       HT       0.417000        1.0080           0
     41067 WT3      2689     TIP3     H2       HT       0.417000        1.0080           0
     41068 WT3      2690     TIP3     OH2      OT      -0.834000       15.9994           0
     41069 WT3      2690     TIP3     H1       HT       0.417000        1.0080           0
     41070 WT3      2690     TIP3     H2       HT       0.417000        1.0080           0
     41071 WT3      2691     TIP3     OH2      OT      -0.834000       15.9994           0
     41072 WT3      2691     TIP3     H1       HT       0.417000        1.0080           0
     41073 WT3      2691     TIP3     H2       HT       0.417000        1.0080           0
     41074 WT3      2692     TIP3     OH2      OT      -0.834000       15.9994           0
     41075 WT3      2692     TIP3     H1       HT       0.417000        1.0080           0
     41076 WT3      2692     TIP3     H2       HT       0.417000        1.0080           0
     41077 WT3      2693     TIP3     OH2      OT      -0.834000       15.9994           0
     41078 WT3      2693     TIP3     H1       HT       0.417000        1.0080           0
     41079 WT3      2693     TIP3     H2       HT       0.417000        1.0080           0
     41080 WT3      2694     TIP3     OH2      OT      -0.834000       15.9994           0
     41081 WT3      2694     TIP3     H1       HT       0.417000        1.0080           0
     41082 WT3      2694     TIP3     H2       HT       0.417000        1.0080           0
     41083 WT3      2695     TIP3     OH2      OT      -0.834000       15.9994           0
     41084 WT3      2695     TIP3     H1       HT       0.417000        1.0080           0
     41085 WT3      2695     TIP3     H2       HT       0.417000        1.0080           0
     41086 WT3      2696     TIP3     OH2      OT      -0.834000       15.9994           0
     41087 WT3      2696     TIP3     H1       HT       0.417000        1.0080           0
     41088 WT3      2696     TIP3     H2       HT       0.417000        1.0080           0
     41089 WT3      2697     TIP3     OH2      OT      -0.834000       15.9994           0
     41090 WT3      2697     TIP3     H1       HT       0.417000        1.0080           0
     41091 WT3      2697     TIP3     H2       HT       0.417000        1.0080           0
     41092 WT3      2698     TIP3     OH2      OT      -0.834000       15.9994           0
     41093 WT3      2698     TIP3     H1       HT       0.417000        1.0080           0
     41094 WT3      2698     TIP3     H2       HT       0.417000        1.0080           0
     41095 WT3      2699     TIP3     OH2      OT      -0.834000       15.9994           0
     41096 WT3      2699     TIP3     H1       HT       0.417000        1.0080           0
     41097 WT3      2699     TIP3     H2       HT       0.417000        1.0080           0
     41098 WT3      2700     TIP3     OH2      OT      -0.834000       15.9994           0
     41099 WT3      2700     TIP3     H1       HT       0.417000        1.0080           0
     41100 WT3      2700     TIP3     H2       HT       0.417000        1.0080           0
     41101 WT3      2702     TIP3     OH2      OT      -0.834000       15.9994           0
     41102 WT3      2702     TIP3     H1       HT       0.417000        1.0080           0
     41103 WT3      2702     TIP3     H2       HT       0.417000        1.0080           0
     41104 WT3      2703     TIP3     OH2      OT      -0.834000       15.9994           0
     41105 WT3      2703     TIP3     H1       HT       0.417000        1.0080           0
     41106 WT3      2703     TIP3     H2       HT       0.417000        1.0080           0
     41107 WT3      2705     TIP3     OH2      OT      -0.834000       15.9994           0
     41108 WT3      2705     TIP3     H1       HT       0.417000        1.0080           0
     41109 WT3      2705     TIP3     H2       HT       0.417000        1.0080           0
     41110 WT3      2706     TIP3     OH2      OT      -0.834000       15.9994           0
     41111 WT3      2706     TIP3     H1       HT       0.417000        1.0080           0
     41112 WT3      2706     TIP3     H2       HT       0.417000        1.0080           0
     41113 WT3      2707     TIP3     OH2      OT      -0.834000       15.9994           0
     41114 WT3      2707     TIP3     H1       HT       0.417000        1.0080           0
     41115 WT3      2707     TIP3     H2       HT       0.417000        1.0080           0
     41116 WT3      2708     TIP3     OH2      OT      -0.834000       15.9994           0
     41117 WT3      2708     TIP3     H1       HT       0.417000        1.0080           0
     41118 WT3      2708     TIP3     H2       HT       0.417000        1.0080           0
     41119 WT3      2709     TIP3     OH2      OT      -0.834000       15.9994           0
     41120 WT3      2709     TIP3     H1       HT       0.417000        1.0080           0
     41121 WT3      2709     TIP3     H2       HT       0.417000        1.0080           0
     41122 WT3      2710     TIP3     OH2      OT      -0.834000       15.9994           0
     41123 WT3      2710     TIP3     H1       HT       0.417000        1.0080           0
     41124 WT3      2710     TIP3     H2       HT       0.417000        1.0080           0
     41125 WT3      2711     TIP3     OH2      OT      -0.834000       15.9994           0
     41126 WT3      2711     TIP3     H1       HT       0.417000        1.0080           0
     41127 WT3      2711     TIP3     H2       HT       0.417000        1.0080           0
     41128 WT3      2713     TIP3     OH2      OT      -0.834000       15.9994           0
     41129 WT3      2713     TIP3     H1       HT       0.417000        1.0080           0
     41130 WT3      2713     TIP3     H2       HT       0.417000        1.0080           0
     41131 WT3      2714     TIP3     OH2      OT      -0.834000       15.9994           0
     41132 WT3      2714     TIP3     H1       HT       0.417000        1.0080           0
     41133 WT3      2714     TIP3     H2       HT       0.417000        1.0080           0
     41134 WT3      2715     TIP3     OH2      OT      -0.834000       15.9994           0
     41135 WT3      2715     TIP3     H1       HT       0.417000        1.0080           0
     41136 WT3      2715     TIP3     H2       HT       0.417000        1.0080           0
     41137 WT3      2717     TIP3     OH2      OT      -0.834000       15.9994           0
     41138 WT3      2717     TIP3     H1       HT       0.417000        1.0080           0
     41139 WT3      2717     TIP3     H2       HT       0.417000        1.0080           0
     41140 WT3      2718     TIP3     OH2      OT      -0.834000       15.9994           0
     41141 WT3      2718     TIP3     H1       HT       0.417000        1.0080           0
     41142 WT3      2718     TIP3     H2       HT       0.417000        1.0080           0
     41143 WT3      2719     TIP3     OH2      OT      -0.834000       15.9994           0
     41144 WT3      2719     TIP3     H1       HT       0.417000        1.0080           0
     41145 WT3      2719     TIP3     H2       HT       0.417000        1.0080           0
     41146 WT3      2720     TIP3     OH2      OT      -0.834000       15.9994           0
     41147 WT3      2720     TIP3     H1       HT       0.417000        1.0080           0
     41148 WT3      2720     TIP3     H2       HT       0.417000        1.0080           0
     41149 WT3      2721     TIP3     OH2      OT      -0.834000       15.9994           0
     41150 WT3      2721     TIP3     H1       HT       0.417000        1.0080           0
     41151 WT3      2721     TIP3     H2       HT       0.417000        1.0080           0
     41152 WT3      2722     TIP3     OH2      OT      -0.834000       15.9994           0
     41153 WT3      2722     TIP3     H1       HT       0.417000        1.0080           0
     41154 WT3      2722     TIP3     H2       HT       0.417000        1.0080           0
     41155 WT3      2723     TIP3     OH2      OT      -0.834000       15.9994           0
     41156 WT3      2723     TIP3     H1       HT       0.417000        1.0080           0
     41157 WT3      2723     TIP3     H2       HT       0.417000        1.0080           0
     41158 WT3      2724     TIP3     OH2      OT      -0.834000       15.9994           0
     41159 WT3      2724     TIP3     H1       HT       0.417000        1.0080           0
     41160 WT3      2724     TIP3     H2       HT       0.417000        1.0080           0
     41161 WT3      2725     TIP3     OH2      OT      -0.834000       15.9994           0
     41162 WT3      2725     TIP3     H1       HT       0.417000        1.0080           0
     41163 WT3      2725     TIP3     H2       HT       0.417000        1.0080           0
     41164 WT3      2726     TIP3     OH2      OT      -0.834000       15.9994           0
     41165 WT3      2726     TIP3     H1       HT       0.417000        1.0080           0
     41166 WT3      2726     TIP3     H2       HT       0.417000        1.0080           0
     41167 WT3      2727     TIP3     OH2      OT      -0.834000       15.9994           0
     41168 WT3      2727     TIP3     H1       HT       0.417000        1.0080           0
     41169 WT3      2727     TIP3     H2       HT       0.417000        1.0080           0
     41170 WT3      2728     TIP3     OH2      OT      -0.834000       15.9994           0
     41171 WT3      2728     TIP3     H1       HT       0.417000        1.0080           0
     41172 WT3      2728     TIP3     H2       HT       0.417000        1.0080           0
     41173 WT3      2729     TIP3     OH2      OT      -0.834000       15.9994           0
     41174 WT3      2729     TIP3     H1       HT       0.417000        1.0080           0
     41175 WT3      2729     TIP3     H2       HT       0.417000        1.0080           0
     41176 WT3      2730     TIP3     OH2      OT      -0.834000       15.9994           0
     41177 WT3      2730     TIP3     H1       HT       0.417000        1.0080           0
     41178 WT3      2730     TIP3     H2       HT       0.417000        1.0080           0
     41179 WT3      2731     TIP3     OH2      OT      -0.834000       15.9994           0
     41180 WT3      2731     TIP3     H1       HT       0.417000        1.0080           0
     41181 WT3      2731     TIP3     H2       HT       0.417000        1.0080           0
     41182 WT3      2732     TIP3     OH2      OT      -0.834000       15.9994           0
     41183 WT3      2732     TIP3     H1       HT       0.417000        1.0080           0
     41184 WT3      2732     TIP3     H2       HT       0.417000        1.0080           0
     41185 WT3      2733     TIP3     OH2      OT      -0.834000       15.9994           0
     41186 WT3      2733     TIP3     H1       HT       0.417000        1.0080           0
     41187 WT3      2733     TIP3     H2       HT       0.417000        1.0080           0
     41188 WT3      2734     TIP3     OH2      OT      -0.834000       15.9994           0
     41189 WT3      2734     TIP3     H1       HT       0.417000        1.0080           0
     41190 WT3      2734     TIP3     H2       HT       0.417000        1.0080           0
     41191 WT3      2735     TIP3     OH2      OT      -0.834000       15.9994           0
     41192 WT3      2735     TIP3     H1       HT       0.417000        1.0080           0
     41193 WT3      2735     TIP3     H2       HT       0.417000        1.0080           0
     41194 WT3      2736     TIP3     OH2      OT      -0.834000       15.9994           0
     41195 WT3      2736     TIP3     H1       HT       0.417000        1.0080           0
     41196 WT3      2736     TIP3     H2       HT       0.417000        1.0080           0
     41197 WT3      2737     TIP3     OH2      OT      -0.834000       15.9994           0
     41198 WT3      2737     TIP3     H1       HT       0.417000        1.0080           0
     41199 WT3      2737     TIP3     H2       HT       0.417000        1.0080           0
     41200 WT3      2740     TIP3     OH2      OT      -0.834000       15.9994           0
     41201 WT3      2740     TIP3     H1       HT       0.417000        1.0080           0
     41202 WT3      2740     TIP3     H2       HT       0.417000        1.0080           0
     41203 WT3      2741     TIP3     OH2      OT      -0.834000       15.9994           0
     41204 WT3      2741     TIP3     H1       HT       0.417000        1.0080           0
     41205 WT3      2741     TIP3     H2       HT       0.417000        1.0080           0
     41206 WT3      2742     TIP3     OH2      OT      -0.834000       15.9994           0
     41207 WT3      2742     TIP3     H1       HT       0.417000        1.0080           0
     41208 WT3      2742     TIP3     H2       HT       0.417000        1.0080           0
     41209 WT3      2743     TIP3     OH2      OT      -0.834000       15.9994           0
     41210 WT3      2743     TIP3     H1       HT       0.417000        1.0080           0
     41211 WT3      2743     TIP3     H2       HT       0.417000        1.0080           0
     41212 WT3      2746     TIP3     OH2      OT      -0.834000       15.9994           0
     41213 WT3      2746     TIP3     H1       HT       0.417000        1.0080           0
     41214 WT3      2746     TIP3     H2       HT       0.417000        1.0080           0
     41215 WT3      2747     TIP3     OH2      OT      -0.834000       15.9994           0
     41216 WT3      2747     TIP3     H1       HT       0.417000        1.0080           0
     41217 WT3      2747     TIP3     H2       HT       0.417000        1.0080           0
     41218 WT3      2748     TIP3     OH2      OT      -0.834000       15.9994           0
     41219 WT3      2748     TIP3     H1       HT       0.417000        1.0080           0
     41220 WT3      2748     TIP3     H2       HT       0.417000        1.0080           0
     41221 WT3      2749     TIP3     OH2      OT      -0.834000       15.9994           0
     41222 WT3      2749     TIP3     H1       HT       0.417000        1.0080           0
     41223 WT3      2749     TIP3     H2       HT       0.417000        1.0080           0
     41224 WT3      2750     TIP3     OH2      OT      -0.834000       15.9994           0
     41225 WT3      2750     TIP3     H1       HT       0.417000        1.0080           0
     41226 WT3      2750     TIP3     H2       HT       0.417000        1.0080           0
     41227 WT3      2751     TIP3     OH2      OT      -0.834000       15.9994           0
     41228 WT3      2751     TIP3     H1       HT       0.417000        1.0080           0
     41229 WT3      2751     TIP3     H2       HT       0.417000        1.0080           0
     41230 WT3      2752     TIP3     OH2      OT      -0.834000       15.9994           0
     41231 WT3      2752     TIP3     H1       HT       0.417000        1.0080           0
     41232 WT3      2752     TIP3     H2       HT       0.417000        1.0080           0
     41233 WT3      2754     TIP3     OH2      OT      -0.834000       15.9994           0
     41234 WT3      2754     TIP3     H1       HT       0.417000        1.0080           0
     41235 WT3      2754     TIP3     H2       HT       0.417000        1.0080           0
     41236 WT3      2756     TIP3     OH2      OT      -0.834000       15.9994           0
     41237 WT3      2756     TIP3     H1       HT       0.417000        1.0080           0
     41238 WT3      2756     TIP3     H2       HT       0.417000        1.0080           0
     41239 WT3      2758     TIP3     OH2      OT      -0.834000       15.9994           0
     41240 WT3      2758     TIP3     H1       HT       0.417000        1.0080           0
     41241 WT3      2758     TIP3     H2       HT       0.417000        1.0080           0
     41242 WT3      2760     TIP3     OH2      OT      -0.834000       15.9994           0
     41243 WT3      2760     TIP3     H1       HT       0.417000        1.0080           0
     41244 WT3      2760     TIP3     H2       HT       0.417000        1.0080           0
     41245 WT3      2761     TIP3     OH2      OT      -0.834000       15.9994           0
     41246 WT3      2761     TIP3     H1       HT       0.417000        1.0080           0
     41247 WT3      2761     TIP3     H2       HT       0.417000        1.0080           0
     41248 WT3      2762     TIP3     OH2      OT      -0.834000       15.9994           0
     41249 WT3      2762     TIP3     H1       HT       0.417000        1.0080           0
     41250 WT3      2762     TIP3     H2       HT       0.417000        1.0080           0
     41251 WT3      2763     TIP3     OH2      OT      -0.834000       15.9994           0
     41252 WT3      2763     TIP3     H1       HT       0.417000        1.0080           0
     41253 WT3      2763     TIP3     H2       HT       0.417000        1.0080           0
     41254 WT3      2764     TIP3     OH2      OT      -0.834000       15.9994           0
     41255 WT3      2764     TIP3     H1       HT       0.417000        1.0080           0
     41256 WT3      2764     TIP3     H2       HT       0.417000        1.0080           0
     41257 WT3      2765     TIP3     OH2      OT      -0.834000       15.9994           0
     41258 WT3      2765     TIP3     H1       HT       0.417000        1.0080           0
     41259 WT3      2765     TIP3     H2       HT       0.417000        1.0080           0
     41260 WT3      2766     TIP3     OH2      OT      -0.834000       15.9994           0
     41261 WT3      2766     TIP3     H1       HT       0.417000        1.0080           0
     41262 WT3      2766     TIP3     H2       HT       0.417000        1.0080           0
     41263 WT3      2769     TIP3     OH2      OT      -0.834000       15.9994           0
     41264 WT3      2769     TIP3     H1       HT       0.417000        1.0080           0
     41265 WT3      2769     TIP3     H2       HT       0.417000        1.0080           0
     41266 WT3      2770     TIP3     OH2      OT      -0.834000       15.9994           0
     41267 WT3      2770     TIP3     H1       HT       0.417000        1.0080           0
     41268 WT3      2770     TIP3     H2       HT       0.417000        1.0080           0
     41269 WT3      2771     TIP3     OH2      OT      -0.834000       15.9994           0
     41270 WT3      2771     TIP3     H1       HT       0.417000        1.0080           0
     41271 WT3      2771     TIP3     H2       HT       0.417000        1.0080           0
     41272 WT3      2775     TIP3     OH2      OT      -0.834000       15.9994           0
     41273 WT3      2775     TIP3     H1       HT       0.417000        1.0080           0
     41274 WT3      2775     TIP3     H2       HT       0.417000        1.0080           0
     41275 WT3      2776     TIP3     OH2      OT      -0.834000       15.9994           0
     41276 WT3      2776     TIP3     H1       HT       0.417000        1.0080           0
     41277 WT3      2776     TIP3     H2       HT       0.417000        1.0080           0
     41278 WT3      2777     TIP3     OH2      OT      -0.834000       15.9994           0
     41279 WT3      2777     TIP3     H1       HT       0.417000        1.0080           0
     41280 WT3      2777     TIP3     H2       HT       0.417000        1.0080           0
     41281 WT3      2778     TIP3     OH2      OT      -0.834000       15.9994           0
     41282 WT3      2778     TIP3     H1       HT       0.417000        1.0080           0
     41283 WT3      2778     TIP3     H2       HT       0.417000        1.0080           0
     41284 WT3      2779     TIP3     OH2      OT      -0.834000       15.9994           0
     41285 WT3      2779     TIP3     H1       HT       0.417000        1.0080           0
     41286 WT3      2779     TIP3     H2       HT       0.417000        1.0080           0
     41287 WT3      2786     TIP3     OH2      OT      -0.834000       15.9994           0
     41288 WT3      2786     TIP3     H1       HT       0.417000        1.0080           0
     41289 WT3      2786     TIP3     H2       HT       0.417000        1.0080           0
     41290 WT3      2789     TIP3     OH2      OT      -0.834000       15.9994           0
     41291 WT3      2789     TIP3     H1       HT       0.417000        1.0080           0
     41292 WT3      2789     TIP3     H2       HT       0.417000        1.0080           0
     41293 WT3      2791     TIP3     OH2      OT      -0.834000       15.9994           0
     41294 WT3      2791     TIP3     H1       HT       0.417000        1.0080           0
     41295 WT3      2791     TIP3     H2       HT       0.417000        1.0080           0
     41296 WT3      2794     TIP3     OH2      OT      -0.834000       15.9994           0
     41297 WT3      2794     TIP3     H1       HT       0.417000        1.0080           0
     41298 WT3      2794     TIP3     H2       HT       0.417000        1.0080           0
     41299 WT3      2800     TIP3     OH2      OT      -0.834000       15.9994           0
     41300 WT3      2800     TIP3     H1       HT       0.417000        1.0080           0
     41301 WT3      2800     TIP3     H2       HT       0.417000        1.0080           0
     41302 WT3      2801     TIP3     OH2      OT      -0.834000       15.9994           0
     41303 WT3      2801     TIP3     H1       HT       0.417000        1.0080           0
     41304 WT3      2801     TIP3     H2       HT       0.417000        1.0080           0
     41305 WT3      2804     TIP3     OH2      OT      -0.834000       15.9994           0
     41306 WT3      2804     TIP3     H1       HT       0.417000        1.0080           0
     41307 WT3      2804     TIP3     H2       HT       0.417000        1.0080           0
     41308 WT3      2809     TIP3     OH2      OT      -0.834000       15.9994           0
     41309 WT3      2809     TIP3     H1       HT       0.417000        1.0080           0
     41310 WT3      2809     TIP3     H2       HT       0.417000        1.0080           0
     41311 WT3      2810     TIP3     OH2      OT      -0.834000       15.9994           0
     41312 WT3      2810     TIP3     H1       HT       0.417000        1.0080           0
     41313 WT3      2810     TIP3     H2       HT       0.417000        1.0080           0
     41314 WT3      2812     TIP3     OH2      OT      -0.834000       15.9994           0
     41315 WT3      2812     TIP3     H1       HT       0.417000        1.0080           0
     41316 WT3      2812     TIP3     H2       HT       0.417000        1.0080           0
     41317 WT3      2813     TIP3     OH2      OT      -0.834000       15.9994           0
     41318 WT3      2813     TIP3     H1       HT       0.417000        1.0080           0
     41319 WT3      2813     TIP3     H2       HT       0.417000        1.0080           0
     41320 WT3      2815     TIP3     OH2      OT      -0.834000       15.9994           0
     41321 WT3      2815     TIP3     H1       HT       0.417000        1.0080           0
     41322 WT3      2815     TIP3     H2       HT       0.417000        1.0080           0
     41323 WT3      2817     TIP3     OH2      OT      -0.834000       15.9994           0
     41324 WT3      2817     TIP3     H1       HT       0.417000        1.0080           0
     41325 WT3      2817     TIP3     H2       HT       0.417000        1.0080           0
     41326 WT3      2820     TIP3     OH2      OT      -0.834000       15.9994           0
     41327 WT3      2820     TIP3     H1       HT       0.417000        1.0080           0
     41328 WT3      2820     TIP3     H2       HT       0.417000        1.0080           0
     41329 WT3      2821     TIP3     OH2      OT      -0.834000       15.9994           0
     41330 WT3      2821     TIP3     H1       HT       0.417000        1.0080           0
     41331 WT3      2821     TIP3     H2       HT       0.417000        1.0080           0
     41332 WT3      2824     TIP3     OH2      OT      -0.834000       15.9994           0
     41333 WT3      2824     TIP3     H1       HT       0.417000        1.0080           0
     41334 WT3      2824     TIP3     H2       HT       0.417000        1.0080           0
     41335 WT3      2826     TIP3     OH2      OT      -0.834000       15.9994           0
     41336 WT3      2826     TIP3     H1       HT       0.417000        1.0080           0
     41337 WT3      2826     TIP3     H2       HT       0.417000        1.0080           0
     41338 WT3      2827     TIP3     OH2      OT      -0.834000       15.9994           0
     41339 WT3      2827     TIP3     H1       HT       0.417000        1.0080           0
     41340 WT3      2827     TIP3     H2       HT       0.417000        1.0080           0
     41341 WT3      2829     TIP3     OH2      OT      -0.834000       15.9994           0
     41342 WT3      2829     TIP3     H1       HT       0.417000        1.0080           0
     41343 WT3      2829     TIP3     H2       HT       0.417000        1.0080           0
     41344 WT3      2833     TIP3     OH2      OT      -0.834000       15.9994           0
     41345 WT3      2833     TIP3     H1       HT       0.417000        1.0080           0
     41346 WT3      2833     TIP3     H2       HT       0.417000        1.0080           0
     41347 WT3      2845     TIP3     OH2      OT      -0.834000       15.9994           0
     41348 WT3      2845     TIP3     H1       HT       0.417000        1.0080           0
     41349 WT3      2845     TIP3     H2       HT       0.417000        1.0080           0
     41350 WT3      2846     TIP3     OH2      OT      -0.834000       15.9994           0
     41351 WT3      2846     TIP3     H1       HT       0.417000        1.0080           0
     41352 WT3      2846     TIP3     H2       HT       0.417000        1.0080           0
     41353 WT3      2847     TIP3     OH2      OT      -0.834000       15.9994           0
     41354 WT3      2847     TIP3     H1       HT       0.417000        1.0080           0
     41355 WT3      2847     TIP3     H2       HT       0.417000        1.0080           0
     41356 WT3      2855     TIP3     OH2      OT      -0.834000       15.9994           0
     41357 WT3      2855     TIP3     H1       HT       0.417000        1.0080           0
     41358 WT3      2855     TIP3     H2       HT       0.417000        1.0080           0
     41359 WT3      2866     TIP3     OH2      OT      -0.834000       15.9994           0
     41360 WT3      2866     TIP3     H1       HT       0.417000        1.0080           0
     41361 WT3      2866     TIP3     H2       HT       0.417000        1.0080           0
     41362 WT3      2885     TIP3     OH2      OT      -0.834000       15.9994           0
     41363 WT3      2885     TIP3     H1       HT       0.417000        1.0080           0
     41364 WT3      2885     TIP3     H2       HT       0.417000        1.0080           0
     41365 WT3      2913     TIP3     OH2      OT      -0.834000       15.9994           0
     41366 WT3      2913     TIP3     H1       HT       0.417000        1.0080           0
     41367 WT3      2913     TIP3     H2       HT       0.417000        1.0080           0
     41368 WT3      2957     TIP3     OH2      OT      -0.834000       15.9994           0
     41369 WT3      2957     TIP3     H1       HT       0.417000        1.0080           0
     41370 WT3      2957     TIP3     H2       HT       0.417000        1.0080           0
     41371 WT3      2985     TIP3     OH2      OT      -0.834000       15.9994           0
     41372 WT3      2985     TIP3     H1       HT       0.417000        1.0080           0
     41373 WT3      2985     TIP3     H2       HT       0.417000        1.0080           0
     41374 WT3      3005     TIP3     OH2      OT      -0.834000       15.9994           0
     41375 WT3      3005     TIP3     H1       HT       0.417000        1.0080           0
     41376 WT3      3005     TIP3     H2       HT       0.417000        1.0080           0
     41377 WT3      3010     TIP3     OH2      OT      -0.834000       15.9994           0
     41378 WT3      3010     TIP3     H1       HT       0.417000        1.0080           0
     41379 WT3      3010     TIP3     H2       HT       0.417000        1.0080           0
     41380 WT3      3012     TIP3     OH2      OT      -0.834000       15.9994           0
     41381 WT3      3012     TIP3     H1       HT       0.417000        1.0080           0
     41382 WT3      3012     TIP3     H2       HT       0.417000        1.0080           0
     41383 WT3      3016     TIP3     OH2      OT      -0.834000       15.9994           0
     41384 WT3      3016     TIP3     H1       HT       0.417000        1.0080           0
     41385 WT3      3016     TIP3     H2       HT       0.417000        1.0080           0
     41386 WT3      3024     TIP3     OH2      OT      -0.834000       15.9994           0
     41387 WT3      3024     TIP3     H1       HT       0.417000        1.0080           0
     41388 WT3      3024     TIP3     H2       HT       0.417000        1.0080           0
     41389 WT3      3027     TIP3     OH2      OT      -0.834000       15.9994           0
     41390 WT3      3027     TIP3     H1       HT       0.417000        1.0080           0
     41391 WT3      3027     TIP3     H2       HT       0.417000        1.0080           0
     41392 WT3      3030     TIP3     OH2      OT      -0.834000       15.9994           0
     41393 WT3      3030     TIP3     H1       HT       0.417000        1.0080           0
     41394 WT3      3030     TIP3     H2       HT       0.417000        1.0080           0
     41395 WT3      3033     TIP3     OH2      OT      -0.834000       15.9994           0
     41396 WT3      3033     TIP3     H1       HT       0.417000        1.0080           0
     41397 WT3      3033     TIP3     H2       HT       0.417000        1.0080           0
     41398 WT3      3036     TIP3     OH2      OT      -0.834000       15.9994           0
     41399 WT3      3036     TIP3     H1       HT       0.417000        1.0080           0
     41400 WT3      3036     TIP3     H2       HT       0.417000        1.0080           0
     41401 WT3      3037     TIP3     OH2      OT      -0.834000       15.9994           0
     41402 WT3      3037     TIP3     H1       HT       0.417000        1.0080           0
     41403 WT3      3037     TIP3     H2       HT       0.417000        1.0080           0
     41404 WT3      3042     TIP3     OH2      OT      -0.834000       15.9994           0
     41405 WT3      3042     TIP3     H1       HT       0.417000        1.0080           0
     41406 WT3      3042     TIP3     H2       HT       0.417000        1.0080           0
     41407 WT3      3046     TIP3     OH2      OT      -0.834000       15.9994           0
     41408 WT3      3046     TIP3     H1       HT       0.417000        1.0080           0
     41409 WT3      3046     TIP3     H2       HT       0.417000        1.0080           0
     41410 WT3      3049     TIP3     OH2      OT      -0.834000       15.9994           0
     41411 WT3      3049     TIP3     H1       HT       0.417000        1.0080           0
     41412 WT3      3049     TIP3     H2       HT       0.417000        1.0080           0
     41413 WT3      3050     TIP3     OH2      OT      -0.834000       15.9994           0
     41414 WT3      3050     TIP3     H1       HT       0.417000        1.0080           0
     41415 WT3      3050     TIP3     H2       HT       0.417000        1.0080           0
     41416 WT3      3053     TIP3     OH2      OT      -0.834000       15.9994           0
     41417 WT3      3053     TIP3     H1       HT       0.417000        1.0080           0
     41418 WT3      3053     TIP3     H2       HT       0.417000        1.0080           0
     41419 WT3      3057     TIP3     OH2      OT      -0.834000       15.9994           0
     41420 WT3      3057     TIP3     H1       HT       0.417000        1.0080           0
     41421 WT3      3057     TIP3     H2       HT       0.417000        1.0080           0
     41422 WT3      3058     TIP3     OH2      OT      -0.834000       15.9994           0
     41423 WT3      3058     TIP3     H1       HT       0.417000        1.0080           0
     41424 WT3      3058     TIP3     H2       HT       0.417000        1.0080           0
     41425 WT3      3059     TIP3     OH2      OT      -0.834000       15.9994           0
     41426 WT3      3059     TIP3     H1       HT       0.417000        1.0080           0
     41427 WT3      3059     TIP3     H2       HT       0.417000        1.0080           0
     41428 WT3      3066     TIP3     OH2      OT      -0.834000       15.9994           0
     41429 WT3      3066     TIP3     H1       HT       0.417000        1.0080           0
     41430 WT3      3066     TIP3     H2       HT       0.417000        1.0080           0
     41431 WT3      3071     TIP3     OH2      OT      -0.834000       15.9994           0
     41432 WT3      3071     TIP3     H1       HT       0.417000        1.0080           0
     41433 WT3      3071     TIP3     H2       HT       0.417000        1.0080           0
     41434 WT3      3072     TIP3     OH2      OT      -0.834000       15.9994           0
     41435 WT3      3072     TIP3     H1       HT       0.417000        1.0080           0
     41436 WT3      3072     TIP3     H2       HT       0.417000        1.0080           0
     41437 WT3      3073     TIP3     OH2      OT      -0.834000       15.9994           0
     41438 WT3      3073     TIP3     H1       HT       0.417000        1.0080           0
     41439 WT3      3073     TIP3     H2       HT       0.417000        1.0080           0
     41440 WT3      3075     TIP3     OH2      OT      -0.834000       15.9994           0
     41441 WT3      3075     TIP3     H1       HT       0.417000        1.0080           0
     41442 WT3      3075     TIP3     H2       HT       0.417000        1.0080           0
     41443 WT3      3079     TIP3     OH2      OT      -0.834000       15.9994           0
     41444 WT3      3079     TIP3     H1       HT       0.417000        1.0080           0
     41445 WT3      3079     TIP3     H2       HT       0.417000        1.0080           0
     41446 WT3      3080     TIP3     OH2      OT      -0.834000       15.9994           0
     41447 WT3      3080     TIP3     H1       HT       0.417000        1.0080           0
     41448 WT3      3080     TIP3     H2       HT       0.417000        1.0080           0
     41449 WT3      3081     TIP3     OH2      OT      -0.834000       15.9994           0
     41450 WT3      3081     TIP3     H1       HT       0.417000        1.0080           0
     41451 WT3      3081     TIP3     H2       HT       0.417000        1.0080           0
     41452 WT3      3082     TIP3     OH2      OT      -0.834000       15.9994           0
     41453 WT3      3082     TIP3     H1       HT       0.417000        1.0080           0
     41454 WT3      3082     TIP3     H2       HT       0.417000        1.0080           0
     41455 WT3      3084     TIP3     OH2      OT      -0.834000       15.9994           0
     41456 WT3      3084     TIP3     H1       HT       0.417000        1.0080           0
     41457 WT3      3084     TIP3     H2       HT       0.417000        1.0080           0
     41458 WT3      3085     TIP3     OH2      OT      -0.834000       15.9994           0
     41459 WT3      3085     TIP3     H1       HT       0.417000        1.0080           0
     41460 WT3      3085     TIP3     H2       HT       0.417000        1.0080           0
     41461 WT3      3086     TIP3     OH2      OT      -0.834000       15.9994           0
     41462 WT3      3086     TIP3     H1       HT       0.417000        1.0080           0
     41463 WT3      3086     TIP3     H2       HT       0.417000        1.0080           0
     41464 WT3      3090     TIP3     OH2      OT      -0.834000       15.9994           0
     41465 WT3      3090     TIP3     H1       HT       0.417000        1.0080           0
     41466 WT3      3090     TIP3     H2       HT       0.417000        1.0080           0
     41467 WT3      3091     TIP3     OH2      OT      -0.834000       15.9994           0
     41468 WT3      3091     TIP3     H1       HT       0.417000        1.0080           0
     41469 WT3      3091     TIP3     H2       HT       0.417000        1.0080           0
     41470 WT3      3092     TIP3     OH2      OT      -0.834000       15.9994           0
     41471 WT3      3092     TIP3     H1       HT       0.417000        1.0080           0
     41472 WT3      3092     TIP3     H2       HT       0.417000        1.0080           0
     41473 WT3      3095     TIP3     OH2      OT      -0.834000       15.9994           0
     41474 WT3      3095     TIP3     H1       HT       0.417000        1.0080           0
     41475 WT3      3095     TIP3     H2       HT       0.417000        1.0080           0
     41476 WT3      3096     TIP3     OH2      OT      -0.834000       15.9994           0
     41477 WT3      3096     TIP3     H1       HT       0.417000        1.0080           0
     41478 WT3      3096     TIP3     H2       HT       0.417000        1.0080           0
     41479 WT3      3097     TIP3     OH2      OT      -0.834000       15.9994           0
     41480 WT3      3097     TIP3     H1       HT       0.417000        1.0080           0
     41481 WT3      3097     TIP3     H2       HT       0.417000        1.0080           0
     41482 WT3      3099     TIP3     OH2      OT      -0.834000       15.9994           0
     41483 WT3      3099     TIP3     H1       HT       0.417000        1.0080           0
     41484 WT3      3099     TIP3     H2       HT       0.417000        1.0080           0
     41485 WT3      3101     TIP3     OH2      OT      -0.834000       15.9994           0
     41486 WT3      3101     TIP3     H1       HT       0.417000        1.0080           0
     41487 WT3      3101     TIP3     H2       HT       0.417000        1.0080           0
     41488 WT3      3102     TIP3     OH2      OT      -0.834000       15.9994           0
     41489 WT3      3102     TIP3     H1       HT       0.417000        1.0080           0
     41490 WT3      3102     TIP3     H2       HT       0.417000        1.0080           0
     41491 WT3      3103     TIP3     OH2      OT      -0.834000       15.9994           0
     41492 WT3      3103     TIP3     H1       HT       0.417000        1.0080           0
     41493 WT3      3103     TIP3     H2       HT       0.417000        1.0080           0
     41494 WT3      3104     TIP3     OH2      OT      -0.834000       15.9994           0
     41495 WT3      3104     TIP3     H1       HT       0.417000        1.0080           0
     41496 WT3      3104     TIP3     H2       HT       0.417000        1.0080           0
     41497 WT3      3105     TIP3     OH2      OT      -0.834000       15.9994           0
     41498 WT3      3105     TIP3     H1       HT       0.417000        1.0080           0
     41499 WT3      3105     TIP3     H2       HT       0.417000        1.0080           0
     41500 WT3      3106     TIP3     OH2      OT      -0.834000       15.9994           0
     41501 WT3      3106     TIP3     H1       HT       0.417000        1.0080           0
     41502 WT3      3106     TIP3     H2       HT       0.417000        1.0080           0
     41503 WT3      3107     TIP3     OH2      OT      -0.834000       15.9994           0
     41504 WT3      3107     TIP3     H1       HT       0.417000        1.0080           0
     41505 WT3      3107     TIP3     H2       HT       0.417000        1.0080           0
     41506 WT3      3108     TIP3     OH2      OT      -0.834000       15.9994           0
     41507 WT3      3108     TIP3     H1       HT       0.417000        1.0080           0
     41508 WT3      3108     TIP3     H2       HT       0.417000        1.0080           0
     41509 WT3      3109     TIP3     OH2      OT      -0.834000       15.9994           0
     41510 WT3      3109     TIP3     H1       HT       0.417000        1.0080           0
     41511 WT3      3109     TIP3     H2       HT       0.417000        1.0080           0
     41512 WT3      3111     TIP3     OH2      OT      -0.834000       15.9994           0
     41513 WT3      3111     TIP3     H1       HT       0.417000        1.0080           0
     41514 WT3      3111     TIP3     H2       HT       0.417000        1.0080           0
     41515 WT3      3112     TIP3     OH2      OT      -0.834000       15.9994           0
     41516 WT3      3112     TIP3     H1       HT       0.417000        1.0080           0
     41517 WT3      3112     TIP3     H2       HT       0.417000        1.0080           0
     41518 WT3      3113     TIP3     OH2      OT      -0.834000       15.9994           0
     41519 WT3      3113     TIP3     H1       HT       0.417000        1.0080           0
     41520 WT3      3113     TIP3     H2       HT       0.417000        1.0080           0
     41521 WT3      3114     TIP3     OH2      OT      -0.834000       15.9994           0
     41522 WT3      3114     TIP3     H1       HT       0.417000        1.0080           0
     41523 WT3      3114     TIP3     H2       HT       0.417000        1.0080           0
     41524 WT3      3115     TIP3     OH2      OT      -0.834000       15.9994           0
     41525 WT3      3115     TIP3     H1       HT       0.417000        1.0080           0
     41526 WT3      3115     TIP3     H2       HT       0.417000        1.0080           0
     41527 WT3      3116     TIP3     OH2      OT      -0.834000       15.9994           0
     41528 WT3      3116     TIP3     H1       HT       0.417000        1.0080           0
     41529 WT3      3116     TIP3     H2       HT       0.417000        1.0080           0
     41530 WT3      3117     TIP3     OH2      OT      -0.834000       15.9994           0
     41531 WT3      3117     TIP3     H1       HT       0.417000        1.0080           0
     41532 WT3      3117     TIP3     H2       HT       0.417000        1.0080           0
     41533 WT3      3119     TIP3     OH2      OT      -0.834000       15.9994           0
     41534 WT3      3119     TIP3     H1       HT       0.417000        1.0080           0
     41535 WT3      3119     TIP3     H2       HT       0.417000        1.0080           0
     41536 WT3      3120     TIP3     OH2      OT      -0.834000       15.9994           0
     41537 WT3      3120     TIP3     H1       HT       0.417000        1.0080           0
     41538 WT3      3120     TIP3     H2       HT       0.417000        1.0080           0
     41539 WT3      3121     TIP3     OH2      OT      -0.834000       15.9994           0
     41540 WT3      3121     TIP3     H1       HT       0.417000        1.0080           0
     41541 WT3      3121     TIP3     H2       HT       0.417000        1.0080           0
     41542 WT3      3123     TIP3     OH2      OT      -0.834000       15.9994           0
     41543 WT3      3123     TIP3     H1       HT       0.417000        1.0080           0
     41544 WT3      3123     TIP3     H2       HT       0.417000        1.0080           0
     41545 WT3      3124     TIP3     OH2      OT      -0.834000       15.9994           0
     41546 WT3      3124     TIP3     H1       HT       0.417000        1.0080           0
     41547 WT3      3124     TIP3     H2       HT       0.417000        1.0080           0
     41548 WT3      3125     TIP3     OH2      OT      -0.834000       15.9994           0
     41549 WT3      3125     TIP3     H1       HT       0.417000        1.0080           0
     41550 WT3      3125     TIP3     H2       HT       0.417000        1.0080           0
     41551 WT3      3126     TIP3     OH2      OT      -0.834000       15.9994           0
     41552 WT3      3126     TIP3     H1       HT       0.417000        1.0080           0
     41553 WT3      3126     TIP3     H2       HT       0.417000        1.0080           0
     41554 WT3      3129     TIP3     OH2      OT      -0.834000       15.9994           0
     41555 WT3      3129     TIP3     H1       HT       0.417000        1.0080           0
     41556 WT3      3129     TIP3     H2       HT       0.417000        1.0080           0
     41557 WT3      3130     TIP3     OH2      OT      -0.834000       15.9994           0
     41558 WT3      3130     TIP3     H1       HT       0.417000        1.0080           0
     41559 WT3      3130     TIP3     H2       HT       0.417000        1.0080           0
     41560 WT3      3131     TIP3     OH2      OT      -0.834000       15.9994           0
     41561 WT3      3131     TIP3     H1       HT       0.417000        1.0080           0
     41562 WT3      3131     TIP3     H2       HT       0.417000        1.0080           0
     41563 WT3      3132     TIP3     OH2      OT      -0.834000       15.9994           0
     41564 WT3      3132     TIP3     H1       HT       0.417000        1.0080           0
     41565 WT3      3132     TIP3     H2       HT       0.417000        1.0080           0
     41566 WT3      3133     TIP3     OH2      OT      -0.834000       15.9994           0
     41567 WT3      3133     TIP3     H1       HT       0.417000        1.0080           0
     41568 WT3      3133     TIP3     H2       HT       0.417000        1.0080           0
     41569 WT3      3134     TIP3     OH2      OT      -0.834000       15.9994           0
     41570 WT3      3134     TIP3     H1       HT       0.417000        1.0080           0
     41571 WT3      3134     TIP3     H2       HT       0.417000        1.0080           0
     41572 WT3      3136     TIP3     OH2      OT      -0.834000       15.9994           0
     41573 WT3      3136     TIP3     H1       HT       0.417000        1.0080           0
     41574 WT3      3136     TIP3     H2       HT       0.417000        1.0080           0
     41575 WT3      3138     TIP3     OH2      OT      -0.834000       15.9994           0
     41576 WT3      3138     TIP3     H1       HT       0.417000        1.0080           0
     41577 WT3      3138     TIP3     H2       HT       0.417000        1.0080           0
     41578 WT3      3139     TIP3     OH2      OT      -0.834000       15.9994           0
     41579 WT3      3139     TIP3     H1       HT       0.417000        1.0080           0
     41580 WT3      3139     TIP3     H2       HT       0.417000        1.0080           0
     41581 WT3      3140     TIP3     OH2      OT      -0.834000       15.9994           0
     41582 WT3      3140     TIP3     H1       HT       0.417000        1.0080           0
     41583 WT3      3140     TIP3     H2       HT       0.417000        1.0080           0
     41584 WT3      3141     TIP3     OH2      OT      -0.834000       15.9994           0
     41585 WT3      3141     TIP3     H1       HT       0.417000        1.0080           0
     41586 WT3      3141     TIP3     H2       HT       0.417000        1.0080           0
     41587 WT3      3142     TIP3     OH2      OT      -0.834000       15.9994           0
     41588 WT3      3142     TIP3     H1       HT       0.417000        1.0080           0
     41589 WT3      3142     TIP3     H2       HT       0.417000        1.0080           0
     41590 WT3      3143     TIP3     OH2      OT      -0.834000       15.9994           0
     41591 WT3      3143     TIP3     H1       HT       0.417000        1.0080           0
     41592 WT3      3143     TIP3     H2       HT       0.417000        1.0080           0
     41593 WT3      3144     TIP3     OH2      OT      -0.834000       15.9994           0
     41594 WT3      3144     TIP3     H1       HT       0.417000        1.0080           0
     41595 WT3      3144     TIP3     H2       HT       0.417000        1.0080           0
     41596 WT3      3145     TIP3     OH2      OT      -0.834000       15.9994           0
     41597 WT3      3145     TIP3     H1       HT       0.417000        1.0080           0
     41598 WT3      3145     TIP3     H2       HT       0.417000        1.0080           0
     41599 WT3      3146     TIP3     OH2      OT      -0.834000       15.9994           0
     41600 WT3      3146     TIP3     H1       HT       0.417000        1.0080           0
     41601 WT3      3146     TIP3     H2       HT       0.417000        1.0080           0
     41602 WT3      3147     TIP3     OH2      OT      -0.834000       15.9994           0
     41603 WT3      3147     TIP3     H1       HT       0.417000        1.0080           0
     41604 WT3      3147     TIP3     H2       HT       0.417000        1.0080           0
     41605 WT3      3148     TIP3     OH2      OT      -0.834000       15.9994           0
     41606 WT3      3148     TIP3     H1       HT       0.417000        1.0080           0
     41607 WT3      3148     TIP3     H2       HT       0.417000        1.0080           0
     41608 WT3      3149     TIP3     OH2      OT      -0.834000       15.9994           0
     41609 WT3      3149     TIP3     H1       HT       0.417000        1.0080           0
     41610 WT3      3149     TIP3     H2       HT       0.417000        1.0080           0
     41611 WT3      3150     TIP3     OH2      OT      -0.834000       15.9994           0
     41612 WT3      3150     TIP3     H1       HT       0.417000        1.0080           0
     41613 WT3      3150     TIP3     H2       HT       0.417000        1.0080           0
     41614 WT3      3152     TIP3     OH2      OT      -0.834000       15.9994           0
     41615 WT3      3152     TIP3     H1       HT       0.417000        1.0080           0
     41616 WT3      3152     TIP3     H2       HT       0.417000        1.0080           0
     41617 WT3      3154     TIP3     OH2      OT      -0.834000       15.9994           0
     41618 WT3      3154     TIP3     H1       HT       0.417000        1.0080           0
     41619 WT3      3154     TIP3     H2       HT       0.417000        1.0080           0
     41620 WT3      3156     TIP3     OH2      OT      -0.834000       15.9994           0
     41621 WT3      3156     TIP3     H1       HT       0.417000        1.0080           0
     41622 WT3      3156     TIP3     H2       HT       0.417000        1.0080           0
     41623 WT3      3158     TIP3     OH2      OT      -0.834000       15.9994           0
     41624 WT3      3158     TIP3     H1       HT       0.417000        1.0080           0
     41625 WT3      3158     TIP3     H2       HT       0.417000        1.0080           0
     41626 WT3      3159     TIP3     OH2      OT      -0.834000       15.9994           0
     41627 WT3      3159     TIP3     H1       HT       0.417000        1.0080           0
     41628 WT3      3159     TIP3     H2       HT       0.417000        1.0080           0
     41629 WT3      3160     TIP3     OH2      OT      -0.834000       15.9994           0
     41630 WT3      3160     TIP3     H1       HT       0.417000        1.0080           0
     41631 WT3      3160     TIP3     H2       HT       0.417000        1.0080           0
     41632 WT3      3161     TIP3     OH2      OT      -0.834000       15.9994           0
     41633 WT3      3161     TIP3     H1       HT       0.417000        1.0080           0
     41634 WT3      3161     TIP3     H2       HT       0.417000        1.0080           0
     41635 WT3      3162     TIP3     OH2      OT      -0.834000       15.9994           0
     41636 WT3      3162     TIP3     H1       HT       0.417000        1.0080           0
     41637 WT3      3162     TIP3     H2       HT       0.417000        1.0080           0
     41638 WT3      3163     TIP3     OH2      OT      -0.834000       15.9994           0
     41639 WT3      3163     TIP3     H1       HT       0.417000        1.0080           0
     41640 WT3      3163     TIP3     H2       HT       0.417000        1.0080           0
     41641 WT3      3164     TIP3     OH2      OT      -0.834000       15.9994           0
     41642 WT3      3164     TIP3     H1       HT       0.417000        1.0080           0
     41643 WT3      3164     TIP3     H2       HT       0.417000        1.0080           0
     41644 WT3      3167     TIP3     OH2      OT      -0.834000       15.9994           0
     41645 WT3      3167     TIP3     H1       HT       0.417000        1.0080           0
     41646 WT3      3167     TIP3     H2       HT       0.417000        1.0080           0
     41647 WT3      3168     TIP3     OH2      OT      -0.834000       15.9994           0
     41648 WT3      3168     TIP3     H1       HT       0.417000        1.0080           0
     41649 WT3      3168     TIP3     H2       HT       0.417000        1.0080           0
     41650 WT3      3169     TIP3     OH2      OT      -0.834000       15.9994           0
     41651 WT3      3169     TIP3     H1       HT       0.417000        1.0080           0
     41652 WT3      3169     TIP3     H2       HT       0.417000        1.0080           0
     41653 WT3      3171     TIP3     OH2      OT      -0.834000       15.9994           0
     41654 WT3      3171     TIP3     H1       HT       0.417000        1.0080           0
     41655 WT3      3171     TIP3     H2       HT       0.417000        1.0080           0
     41656 WT3      3173     TIP3     OH2      OT      -0.834000       15.9994           0
     41657 WT3      3173     TIP3     H1       HT       0.417000        1.0080           0
     41658 WT3      3173     TIP3     H2       HT       0.417000        1.0080           0
     41659 WT3      3174     TIP3     OH2      OT      -0.834000       15.9994           0
     41660 WT3      3174     TIP3     H1       HT       0.417000        1.0080           0
     41661 WT3      3174     TIP3     H2       HT       0.417000        1.0080           0
     41662 WT3      3175     TIP3     OH2      OT      -0.834000       15.9994           0
     41663 WT3      3175     TIP3     H1       HT       0.417000        1.0080           0
     41664 WT3      3175     TIP3     H2       HT       0.417000        1.0080           0
     41665 WT3      3176     TIP3     OH2      OT      -0.834000       15.9994           0
     41666 WT3      3176     TIP3     H1       HT       0.417000        1.0080           0
     41667 WT3      3176     TIP3     H2       HT       0.417000        1.0080           0
     41668 WT3      3177     TIP3     OH2      OT      -0.834000       15.9994           0
     41669 WT3      3177     TIP3     H1       HT       0.417000        1.0080           0
     41670 WT3      3177     TIP3     H2       HT       0.417000        1.0080           0
     41671 WT3      3180     TIP3     OH2      OT      -0.834000       15.9994           0
     41672 WT3      3180     TIP3     H1       HT       0.417000        1.0080           0
     41673 WT3      3180     TIP3     H2       HT       0.417000        1.0080           0
     41674 WT3      3181     TIP3     OH2      OT      -0.834000       15.9994           0
     41675 WT3      3181     TIP3     H1       HT       0.417000        1.0080           0
     41676 WT3      3181     TIP3     H2       HT       0.417000        1.0080           0
     41677 WT3      3183     TIP3     OH2      OT      -0.834000       15.9994           0
     41678 WT3      3183     TIP3     H1       HT       0.417000        1.0080           0
     41679 WT3      3183     TIP3     H2       HT       0.417000        1.0080           0
     41680 WT3      3184     TIP3     OH2      OT      -0.834000       15.9994           0
     41681 WT3      3184     TIP3     H1       HT       0.417000        1.0080           0
     41682 WT3      3184     TIP3     H2       HT       0.417000        1.0080           0
     41683 WT3      3185     TIP3     OH2      OT      -0.834000       15.9994           0
     41684 WT3      3185     TIP3     H1       HT       0.417000        1.0080           0
     41685 WT3      3185     TIP3     H2       HT       0.417000        1.0080           0
     41686 WT3      3186     TIP3     OH2      OT      -0.834000       15.9994           0
     41687 WT3      3186     TIP3     H1       HT       0.417000        1.0080           0
     41688 WT3      3186     TIP3     H2       HT       0.417000        1.0080           0
     41689 WT3      3187     TIP3     OH2      OT      -0.834000       15.9994           0
     41690 WT3      3187     TIP3     H1       HT       0.417000        1.0080           0
     41691 WT3      3187     TIP3     H2       HT       0.417000        1.0080           0
     41692 WT3      3188     TIP3     OH2      OT      -0.834000       15.9994           0
     41693 WT3      3188     TIP3     H1       HT       0.417000        1.0080           0
     41694 WT3      3188     TIP3     H2       HT       0.417000        1.0080           0
     41695 WT3      3189     TIP3     OH2      OT      -0.834000       15.9994           0
     41696 WT3      3189     TIP3     H1       HT       0.417000        1.0080           0
     41697 WT3      3189     TIP3     H2       HT       0.417000        1.0080           0
     41698 WT3      3191     TIP3     OH2      OT      -0.834000       15.9994           0
     41699 WT3      3191     TIP3     H1       HT       0.417000        1.0080           0
     41700 WT3      3191     TIP3     H2       HT       0.417000        1.0080           0
     41701 WT3      3192     TIP3     OH2      OT      -0.834000       15.9994           0
     41702 WT3      3192     TIP3     H1       HT       0.417000        1.0080           0
     41703 WT3      3192     TIP3     H2       HT       0.417000        1.0080           0
     41704 WT3      3194     TIP3     OH2      OT      -0.834000       15.9994           0
     41705 WT3      3194     TIP3     H1       HT       0.417000        1.0080           0
     41706 WT3      3194     TIP3     H2       HT       0.417000        1.0080           0
     41707 WT3      3196     TIP3     OH2      OT      -0.834000       15.9994           0
     41708 WT3      3196     TIP3     H1       HT       0.417000        1.0080           0
     41709 WT3      3196     TIP3     H2       HT       0.417000        1.0080           0
     41710 WT3      3198     TIP3     OH2      OT      -0.834000       15.9994           0
     41711 WT3      3198     TIP3     H1       HT       0.417000        1.0080           0
     41712 WT3      3198     TIP3     H2       HT       0.417000        1.0080           0
     41713 WT3      3200     TIP3     OH2      OT      -0.834000       15.9994           0
     41714 WT3      3200     TIP3     H1       HT       0.417000        1.0080           0
     41715 WT3      3200     TIP3     H2       HT       0.417000        1.0080           0
     41716 WT3      3201     TIP3     OH2      OT      -0.834000       15.9994           0
     41717 WT3      3201     TIP3     H1       HT       0.417000        1.0080           0
     41718 WT3      3201     TIP3     H2       HT       0.417000        1.0080           0
     41719 WT3      3202     TIP3     OH2      OT      -0.834000       15.9994           0
     41720 WT3      3202     TIP3     H1       HT       0.417000        1.0080           0
     41721 WT3      3202     TIP3     H2       HT       0.417000        1.0080           0
     41722 WT3      3203     TIP3     OH2      OT      -0.834000       15.9994           0
     41723 WT3      3203     TIP3     H1       HT       0.417000        1.0080           0
     41724 WT3      3203     TIP3     H2       HT       0.417000        1.0080           0
     41725 WT3      3205     TIP3     OH2      OT      -0.834000       15.9994           0
     41726 WT3      3205     TIP3     H1       HT       0.417000        1.0080           0
     41727 WT3      3205     TIP3     H2       HT       0.417000        1.0080           0
     41728 WT3      3206     TIP3     OH2      OT      -0.834000       15.9994           0
     41729 WT3      3206     TIP3     H1       HT       0.417000        1.0080           0
     41730 WT3      3206     TIP3     H2       HT       0.417000        1.0080           0
     41731 WT3      3207     TIP3     OH2      OT      -0.834000       15.9994           0
     41732 WT3      3207     TIP3     H1       HT       0.417000        1.0080           0
     41733 WT3      3207     TIP3     H2       HT       0.417000        1.0080           0
     41734 WT3      3209     TIP3     OH2      OT      -0.834000       15.9994           0
     41735 WT3      3209     TIP3     H1       HT       0.417000        1.0080           0
     41736 WT3      3209     TIP3     H2       HT       0.417000        1.0080           0
     41737 WT3      3210     TIP3     OH2      OT      -0.834000       15.9994           0
     41738 WT3      3210     TIP3     H1       HT       0.417000        1.0080           0
     41739 WT3      3210     TIP3     H2       HT       0.417000        1.0080           0
     41740 WT3      3213     TIP3     OH2      OT      -0.834000       15.9994           0
     41741 WT3      3213     TIP3     H1       HT       0.417000        1.0080           0
     41742 WT3      3213     TIP3     H2       HT       0.417000        1.0080           0
     41743 WT3      3214     TIP3     OH2      OT      -0.834000       15.9994           0
     41744 WT3      3214     TIP3     H1       HT       0.417000        1.0080           0
     41745 WT3      3214     TIP3     H2       HT       0.417000        1.0080           0
     41746 WT3      3215     TIP3     OH2      OT      -0.834000       15.9994           0
     41747 WT3      3215     TIP3     H1       HT       0.417000        1.0080           0
     41748 WT3      3215     TIP3     H2       HT       0.417000        1.0080           0
     41749 WT3      3218     TIP3     OH2      OT      -0.834000       15.9994           0
     41750 WT3      3218     TIP3     H1       HT       0.417000        1.0080           0
     41751 WT3      3218     TIP3     H2       HT       0.417000        1.0080           0
     41752 WT3      3219     TIP3     OH2      OT      -0.834000       15.9994           0
     41753 WT3      3219     TIP3     H1       HT       0.417000        1.0080           0
     41754 WT3      3219     TIP3     H2       HT       0.417000        1.0080           0
     41755 WT3      3221     TIP3     OH2      OT      -0.834000       15.9994           0
     41756 WT3      3221     TIP3     H1       HT       0.417000        1.0080           0
     41757 WT3      3221     TIP3     H2       HT       0.417000        1.0080           0
     41758 WT3      3222     TIP3     OH2      OT      -0.834000       15.9994           0
     41759 WT3      3222     TIP3     H1       HT       0.417000        1.0080           0
     41760 WT3      3222     TIP3     H2       HT       0.417000        1.0080           0
     41761 WT3      3223     TIP3     OH2      OT      -0.834000       15.9994           0
     41762 WT3      3223     TIP3     H1       HT       0.417000        1.0080           0
     41763 WT3      3223     TIP3     H2       HT       0.417000        1.0080           0
     41764 WT3      3224     TIP3     OH2      OT      -0.834000       15.9994           0
     41765 WT3      3224     TIP3     H1       HT       0.417000        1.0080           0
     41766 WT3      3224     TIP3     H2       HT       0.417000        1.0080           0
     41767 WT3      3225     TIP3     OH2      OT      -0.834000       15.9994           0
     41768 WT3      3225     TIP3     H1       HT       0.417000        1.0080           0
     41769 WT3      3225     TIP3     H2       HT       0.417000        1.0080           0
     41770 WT3      3227     TIP3     OH2      OT      -0.834000       15.9994           0
     41771 WT3      3227     TIP3     H1       HT       0.417000        1.0080           0
     41772 WT3      3227     TIP3     H2       HT       0.417000        1.0080           0
     41773 WT3      3231     TIP3     OH2      OT      -0.834000       15.9994           0
     41774 WT3      3231     TIP3     H1       HT       0.417000        1.0080           0
     41775 WT3      3231     TIP3     H2       HT       0.417000        1.0080           0
     41776 WT3      3232     TIP3     OH2      OT      -0.834000       15.9994           0
     41777 WT3      3232     TIP3     H1       HT       0.417000        1.0080           0
     41778 WT3      3232     TIP3     H2       HT       0.417000        1.0080           0
     41779 WT3      3234     TIP3     OH2      OT      -0.834000       15.9994           0
     41780 WT3      3234     TIP3     H1       HT       0.417000        1.0080           0
     41781 WT3      3234     TIP3     H2       HT       0.417000        1.0080           0
     41782 WT3      3237     TIP3     OH2      OT      -0.834000       15.9994           0
     41783 WT3      3237     TIP3     H1       HT       0.417000        1.0080           0
     41784 WT3      3237     TIP3     H2       HT       0.417000        1.0080           0
     41785 WT3      3242     TIP3     OH2      OT      -0.834000       15.9994           0
     41786 WT3      3242     TIP3     H1       HT       0.417000        1.0080           0
     41787 WT3      3242     TIP3     H2       HT       0.417000        1.0080           0
     41788 WT3      3244     TIP3     OH2      OT      -0.834000       15.9994           0
     41789 WT3      3244     TIP3     H1       HT       0.417000        1.0080           0
     41790 WT3      3244     TIP3     H2       HT       0.417000        1.0080           0
     41791 WT3      3245     TIP3     OH2      OT      -0.834000       15.9994           0
     41792 WT3      3245     TIP3     H1       HT       0.417000        1.0080           0
     41793 WT3      3245     TIP3     H2       HT       0.417000        1.0080           0
     41794 WT3      3246     TIP3     OH2      OT      -0.834000       15.9994           0
     41795 WT3      3246     TIP3     H1       HT       0.417000        1.0080           0
     41796 WT3      3246     TIP3     H2       HT       0.417000        1.0080           0
     41797 WT3      3249     TIP3     OH2      OT      -0.834000       15.9994           0
     41798 WT3      3249     TIP3     H1       HT       0.417000        1.0080           0
     41799 WT3      3249     TIP3     H2       HT       0.417000        1.0080           0
     41800 WT3      3250     TIP3     OH2      OT      -0.834000       15.9994           0
     41801 WT3      3250     TIP3     H1       HT       0.417000        1.0080           0
     41802 WT3      3250     TIP3     H2       HT       0.417000        1.0080           0
     41803 WT3      3251     TIP3     OH2      OT      -0.834000       15.9994           0
     41804 WT3      3251     TIP3     H1       HT       0.417000        1.0080           0
     41805 WT3      3251     TIP3     H2       HT       0.417000        1.0080           0
     41806 WT3      3258     TIP3     OH2      OT      -0.834000       15.9994           0
     41807 WT3      3258     TIP3     H1       HT       0.417000        1.0080           0
     41808 WT3      3258     TIP3     H2       HT       0.417000        1.0080           0
     41809 WT3      3259     TIP3     OH2      OT      -0.834000       15.9994           0
     41810 WT3      3259     TIP3     H1       HT       0.417000        1.0080           0
     41811 WT3      3259     TIP3     H2       HT       0.417000        1.0080           0
     41812 WT3      3262     TIP3     OH2      OT      -0.834000       15.9994           0
     41813 WT3      3262     TIP3     H1       HT       0.417000        1.0080           0
     41814 WT3      3262     TIP3     H2       HT       0.417000        1.0080           0
     41815 WT3      3263     TIP3     OH2      OT      -0.834000       15.9994           0
     41816 WT3      3263     TIP3     H1       HT       0.417000        1.0080           0
     41817 WT3      3263     TIP3     H2       HT       0.417000        1.0080           0
     41818 WT3      3266     TIP3     OH2      OT      -0.834000       15.9994           0
     41819 WT3      3266     TIP3     H1       HT       0.417000        1.0080           0
     41820 WT3      3266     TIP3     H2       HT       0.417000        1.0080           0
     41821 WT3      3268     TIP3     OH2      OT      -0.834000       15.9994           0
     41822 WT3      3268     TIP3     H1       HT       0.417000        1.0080           0
     41823 WT3      3268     TIP3     H2       HT       0.417000        1.0080           0
     41824 WT3      3269     TIP3     OH2      OT      -0.834000       15.9994           0
     41825 WT3      3269     TIP3     H1       HT       0.417000        1.0080           0
     41826 WT3      3269     TIP3     H2       HT       0.417000        1.0080           0
     41827 WT3      3270     TIP3     OH2      OT      -0.834000       15.9994           0
     41828 WT3      3270     TIP3     H1       HT       0.417000        1.0080           0
     41829 WT3      3270     TIP3     H2       HT       0.417000        1.0080           0
     41830 WT3      3271     TIP3     OH2      OT      -0.834000       15.9994           0
     41831 WT3      3271     TIP3     H1       HT       0.417000        1.0080           0
     41832 WT3      3271     TIP3     H2       HT       0.417000        1.0080           0
     41833 WT3      3274     TIP3     OH2      OT      -0.834000       15.9994           0
     41834 WT3      3274     TIP3     H1       HT       0.417000        1.0080           0
     41835 WT3      3274     TIP3     H2       HT       0.417000        1.0080           0
     41836 WT3      3280     TIP3     OH2      OT      -0.834000       15.9994           0
     41837 WT3      3280     TIP3     H1       HT       0.417000        1.0080           0
     41838 WT3      3280     TIP3     H2       HT       0.417000        1.0080           0
     41839 WT3      3286     TIP3     OH2      OT      -0.834000       15.9994           0
     41840 WT3      3286     TIP3     H1       HT       0.417000        1.0080           0
     41841 WT3      3286     TIP3     H2       HT       0.417000        1.0080           0
     41842 WT3      3291     TIP3     OH2      OT      -0.834000       15.9994           0
     41843 WT3      3291     TIP3     H1       HT       0.417000        1.0080           0
     41844 WT3      3291     TIP3     H2       HT       0.417000        1.0080           0
     41845 WT3      3293     TIP3     OH2      OT      -0.834000       15.9994           0
     41846 WT3      3293     TIP3     H1       HT       0.417000        1.0080           0
     41847 WT3      3293     TIP3     H2       HT       0.417000        1.0080           0
     41848 WT3      3296     TIP3     OH2      OT      -0.834000       15.9994           0
     41849 WT3      3296     TIP3     H1       HT       0.417000        1.0080           0
     41850 WT3      3296     TIP3     H2       HT       0.417000        1.0080           0
     41851 WT3      3303     TIP3     OH2      OT      -0.834000       15.9994           0
     41852 WT3      3303     TIP3     H1       HT       0.417000        1.0080           0
     41853 WT3      3303     TIP3     H2       HT       0.417000        1.0080           0
     41854 WT3      3304     TIP3     OH2      OT      -0.834000       15.9994           0
     41855 WT3      3304     TIP3     H1       HT       0.417000        1.0080           0
     41856 WT3      3304     TIP3     H2       HT       0.417000        1.0080           0
     41857 WT3      3305     TIP3     OH2      OT      -0.834000       15.9994           0
     41858 WT3      3305     TIP3     H1       HT       0.417000        1.0080           0
     41859 WT3      3305     TIP3     H2       HT       0.417000        1.0080           0
     41860 WT3      3309     TIP3     OH2      OT      -0.834000       15.9994           0
     41861 WT3      3309     TIP3     H1       HT       0.417000        1.0080           0
     41862 WT3      3309     TIP3     H2       HT       0.417000        1.0080           0
     41863 WT3      3313     TIP3     OH2      OT      -0.834000       15.9994           0
     41864 WT3      3313     TIP3     H1       HT       0.417000        1.0080           0
     41865 WT3      3313     TIP3     H2       HT       0.417000        1.0080           0
     41866 WT3      3331     TIP3     OH2      OT      -0.834000       15.9994           0
     41867 WT3      3331     TIP3     H1       HT       0.417000        1.0080           0
     41868 WT3      3331     TIP3     H2       HT       0.417000        1.0080           0
     41869 WT3      3354     TIP3     OH2      OT      -0.834000       15.9994           0
     41870 WT3      3354     TIP3     H1       HT       0.417000        1.0080           0
     41871 WT3      3354     TIP3     H2       HT       0.417000        1.0080           0
     41872 WT3      3426     TIP3     OH2      OT      -0.834000       15.9994           0
     41873 WT3      3426     TIP3     H1       HT       0.417000        1.0080           0
     41874 WT3      3426     TIP3     H2       HT       0.417000        1.0080           0
     41875 WT3      3434     TIP3     OH2      OT      -0.834000       15.9994           0
     41876 WT3      3434     TIP3     H1       HT       0.417000        1.0080           0
     41877 WT3      3434     TIP3     H2       HT       0.417000        1.0080           0
     41878 WT3      3440     TIP3     OH2      OT      -0.834000       15.9994           0
     41879 WT3      3440     TIP3     H1       HT       0.417000        1.0080           0
     41880 WT3      3440     TIP3     H2       HT       0.417000        1.0080           0
     41881 WT3      3442     TIP3     OH2      OT      -0.834000       15.9994           0
     41882 WT3      3442     TIP3     H1       HT       0.417000        1.0080           0
     41883 WT3      3442     TIP3     H2       HT       0.417000        1.0080           0
     41884 WT3      3447     TIP3     OH2      OT      -0.834000       15.9994           0
     41885 WT3      3447     TIP3     H1       HT       0.417000        1.0080           0
     41886 WT3      3447     TIP3     H2       HT       0.417000        1.0080           0
     41887 WT3      3474     TIP3     OH2      OT      -0.834000       15.9994           0
     41888 WT3      3474     TIP3     H1       HT       0.417000        1.0080           0
     41889 WT3      3474     TIP3     H2       HT       0.417000        1.0080           0
     41890 WT3      3476     TIP3     OH2      OT      -0.834000       15.9994           0
     41891 WT3      3476     TIP3     H1       HT       0.417000        1.0080           0
     41892 WT3      3476     TIP3     H2       HT       0.417000        1.0080           0
     41893 WT3      3480     TIP3     OH2      OT      -0.834000       15.9994           0
     41894 WT3      3480     TIP3     H1       HT       0.417000        1.0080           0
     41895 WT3      3480     TIP3     H2       HT       0.417000        1.0080           0
     41896 WT3      3484     TIP3     OH2      OT      -0.834000       15.9994           0
     41897 WT3      3484     TIP3     H1       HT       0.417000        1.0080           0
     41898 WT3      3484     TIP3     H2       HT       0.417000        1.0080           0
     41899 WT3      3496     TIP3     OH2      OT      -0.834000       15.9994           0
     41900 WT3      3496     TIP3     H1       HT       0.417000        1.0080           0
     41901 WT3      3496     TIP3     H2       HT       0.417000        1.0080           0
     41902 WT3      3497     TIP3     OH2      OT      -0.834000       15.9994           0
     41903 WT3      3497     TIP3     H1       HT       0.417000        1.0080           0
     41904 WT3      3497     TIP3     H2       HT       0.417000        1.0080           0
     41905 WT3      3504     TIP3     OH2      OT      -0.834000       15.9994           0
     41906 WT3      3504     TIP3     H1       HT       0.417000        1.0080           0
     41907 WT3      3504     TIP3     H2       HT       0.417000        1.0080           0
     41908 WT3      3507     TIP3     OH2      OT      -0.834000       15.9994           0
     41909 WT3      3507     TIP3     H1       HT       0.417000        1.0080           0
     41910 WT3      3507     TIP3     H2       HT       0.417000        1.0080           0
     41911 WT3      3511     TIP3     OH2      OT      -0.834000       15.9994           0
     41912 WT3      3511     TIP3     H1       HT       0.417000        1.0080           0
     41913 WT3      3511     TIP3     H2       HT       0.417000        1.0080           0
     41914 WT3      3513     TIP3     OH2      OT      -0.834000       15.9994           0
     41915 WT3      3513     TIP3     H1       HT       0.417000        1.0080           0
     41916 WT3      3513     TIP3     H2       HT       0.417000        1.0080           0
     41917 WT3      3514     TIP3     OH2      OT      -0.834000       15.9994           0
     41918 WT3      3514     TIP3     H1       HT       0.417000        1.0080           0
     41919 WT3      3514     TIP3     H2       HT       0.417000        1.0080           0
     41920 WT3      3517     TIP3     OH2      OT      -0.834000       15.9994           0
     41921 WT3      3517     TIP3     H1       HT       0.417000        1.0080           0
     41922 WT3      3517     TIP3     H2       HT       0.417000        1.0080           0
     41923 WT3      3521     TIP3     OH2      OT      -0.834000       15.9994           0
     41924 WT3      3521     TIP3     H1       HT       0.417000        1.0080           0
     41925 WT3      3521     TIP3     H2       HT       0.417000        1.0080           0
     41926 WT3      3526     TIP3     OH2      OT      -0.834000       15.9994           0
     41927 WT3      3526     TIP3     H1       HT       0.417000        1.0080           0
     41928 WT3      3526     TIP3     H2       HT       0.417000        1.0080           0
     41929 WT3      3527     TIP3     OH2      OT      -0.834000       15.9994           0
     41930 WT3      3527     TIP3     H1       HT       0.417000        1.0080           0
     41931 WT3      3527     TIP3     H2       HT       0.417000        1.0080           0
     41932 WT3      3529     TIP3     OH2      OT      -0.834000       15.9994           0
     41933 WT3      3529     TIP3     H1       HT       0.417000        1.0080           0
     41934 WT3      3529     TIP3     H2       HT       0.417000        1.0080           0
     41935 WT3      3533     TIP3     OH2      OT      -0.834000       15.9994           0
     41936 WT3      3533     TIP3     H1       HT       0.417000        1.0080           0
     41937 WT3      3533     TIP3     H2       HT       0.417000        1.0080           0
     41938 WT3      3534     TIP3     OH2      OT      -0.834000       15.9994           0
     41939 WT3      3534     TIP3     H1       HT       0.417000        1.0080           0
     41940 WT3      3534     TIP3     H2       HT       0.417000        1.0080           0
     41941 WT3      3537     TIP3     OH2      OT      -0.834000       15.9994           0
     41942 WT3      3537     TIP3     H1       HT       0.417000        1.0080           0
     41943 WT3      3537     TIP3     H2       HT       0.417000        1.0080           0
     41944 WT3      3543     TIP3     OH2      OT      -0.834000       15.9994           0
     41945 WT3      3543     TIP3     H1       HT       0.417000        1.0080           0
     41946 WT3      3543     TIP3     H2       HT       0.417000        1.0080           0
     41947 WT3      3544     TIP3     OH2      OT      -0.834000       15.9994           0
     41948 WT3      3544     TIP3     H1       HT       0.417000        1.0080           0
     41949 WT3      3544     TIP3     H2       HT       0.417000        1.0080           0
     41950 WT3      3545     TIP3     OH2      OT      -0.834000       15.9994           0
     41951 WT3      3545     TIP3     H1       HT       0.417000        1.0080           0
     41952 WT3      3545     TIP3     H2       HT       0.417000        1.0080           0
     41953 WT3      3546     TIP3     OH2      OT      -0.834000       15.9994           0
     41954 WT3      3546     TIP3     H1       HT       0.417000        1.0080           0
     41955 WT3      3546     TIP3     H2       HT       0.417000        1.0080           0
     41956 WT3      3548     TIP3     OH2      OT      -0.834000       15.9994           0
     41957 WT3      3548     TIP3     H1       HT       0.417000        1.0080           0
     41958 WT3      3548     TIP3     H2       HT       0.417000        1.0080           0
     41959 WT3      3552     TIP3     OH2      OT      -0.834000       15.9994           0
     41960 WT3      3552     TIP3     H1       HT       0.417000        1.0080           0
     41961 WT3      3552     TIP3     H2       HT       0.417000        1.0080           0
     41962 WT3      3554     TIP3     OH2      OT      -0.834000       15.9994           0
     41963 WT3      3554     TIP3     H1       HT       0.417000        1.0080           0
     41964 WT3      3554     TIP3     H2       HT       0.417000        1.0080           0
     41965 WT3      3555     TIP3     OH2      OT      -0.834000       15.9994           0
     41966 WT3      3555     TIP3     H1       HT       0.417000        1.0080           0
     41967 WT3      3555     TIP3     H2       HT       0.417000        1.0080           0
     41968 WT3      3556     TIP3     OH2      OT      -0.834000       15.9994           0
     41969 WT3      3556     TIP3     H1       HT       0.417000        1.0080           0
     41970 WT3      3556     TIP3     H2       HT       0.417000        1.0080           0
     41971 WT3      3557     TIP3     OH2      OT      -0.834000       15.9994           0
     41972 WT3      3557     TIP3     H1       HT       0.417000        1.0080           0
     41973 WT3      3557     TIP3     H2       HT       0.417000        1.0080           0
     41974 WT3      3558     TIP3     OH2      OT      -0.834000       15.9994           0
     41975 WT3      3558     TIP3     H1       HT       0.417000        1.0080           0
     41976 WT3      3558     TIP3     H2       HT       0.417000        1.0080           0
     41977 WT3      3560     TIP3     OH2      OT      -0.834000       15.9994           0
     41978 WT3      3560     TIP3     H1       HT       0.417000        1.0080           0
     41979 WT3      3560     TIP3     H2       HT       0.417000        1.0080           0
     41980 WT3      3561     TIP3     OH2      OT      -0.834000       15.9994           0
     41981 WT3      3561     TIP3     H1       HT       0.417000        1.0080           0
     41982 WT3      3561     TIP3     H2       HT       0.417000        1.0080           0
     41983 WT3      3562     TIP3     OH2      OT      -0.834000       15.9994           0
     41984 WT3      3562     TIP3     H1       HT       0.417000        1.0080           0
     41985 WT3      3562     TIP3     H2       HT       0.417000        1.0080           0
     41986 WT3      3563     TIP3     OH2      OT      -0.834000       15.9994           0
     41987 WT3      3563     TIP3     H1       HT       0.417000        1.0080           0
     41988 WT3      3563     TIP3     H2       HT       0.417000        1.0080           0
     41989 WT3      3564     TIP3     OH2      OT      -0.834000       15.9994           0
     41990 WT3      3564     TIP3     H1       HT       0.417000        1.0080           0
     41991 WT3      3564     TIP3     H2       HT       0.417000        1.0080           0
     41992 WT3      3566     TIP3     OH2      OT      -0.834000       15.9994           0
     41993 WT3      3566     TIP3     H1       HT       0.417000        1.0080           0
     41994 WT3      3566     TIP3     H2       HT       0.417000        1.0080           0
     41995 WT3      3567     TIP3     OH2      OT      -0.834000       15.9994           0
     41996 WT3      3567     TIP3     H1       HT       0.417000        1.0080           0
     41997 WT3      3567     TIP3     H2       HT       0.417000        1.0080           0
     41998 WT3      3568     TIP3     OH2      OT      -0.834000       15.9994           0
     41999 WT3      3568     TIP3     H1       HT       0.417000        1.0080           0
     42000 WT3      3568     TIP3     H2       HT       0.417000        1.0080           0
     42001 WT3      3569     TIP3     OH2      OT      -0.834000       15.9994           0
     42002 WT3      3569     TIP3     H1       HT       0.417000        1.0080           0
     42003 WT3      3569     TIP3     H2       HT       0.417000        1.0080           0
     42004 WT3      3571     TIP3     OH2      OT      -0.834000       15.9994           0
     42005 WT3      3571     TIP3     H1       HT       0.417000        1.0080           0
     42006 WT3      3571     TIP3     H2       HT       0.417000        1.0080           0
     42007 WT3      3573     TIP3     OH2      OT      -0.834000       15.9994           0
     42008 WT3      3573     TIP3     H1       HT       0.417000        1.0080           0
     42009 WT3      3573     TIP3     H2       HT       0.417000        1.0080           0
     42010 WT3      3575     TIP3     OH2      OT      -0.834000       15.9994           0
     42011 WT3      3575     TIP3     H1       HT       0.417000        1.0080           0
     42012 WT3      3575     TIP3     H2       HT       0.417000        1.0080           0
     42013 WT3      3576     TIP3     OH2      OT      -0.834000       15.9994           0
     42014 WT3      3576     TIP3     H1       HT       0.417000        1.0080           0
     42015 WT3      3576     TIP3     H2       HT       0.417000        1.0080           0
     42016 WT3      3578     TIP3     OH2      OT      -0.834000       15.9994           0
     42017 WT3      3578     TIP3     H1       HT       0.417000        1.0080           0
     42018 WT3      3578     TIP3     H2       HT       0.417000        1.0080           0
     42019 WT3      3579     TIP3     OH2      OT      -0.834000       15.9994           0
     42020 WT3      3579     TIP3     H1       HT       0.417000        1.0080           0
     42021 WT3      3579     TIP3     H2       HT       0.417000        1.0080           0
     42022 WT3      3580     TIP3     OH2      OT      -0.834000       15.9994           0
     42023 WT3      3580     TIP3     H1       HT       0.417000        1.0080           0
     42024 WT3      3580     TIP3     H2       HT       0.417000        1.0080           0
     42025 WT3      3582     TIP3     OH2      OT      -0.834000       15.9994           0
     42026 WT3      3582     TIP3     H1       HT       0.417000        1.0080           0
     42027 WT3      3582     TIP3     H2       HT       0.417000        1.0080           0
     42028 WT3      3583     TIP3     OH2      OT      -0.834000       15.9994           0
     42029 WT3      3583     TIP3     H1       HT       0.417000        1.0080           0
     42030 WT3      3583     TIP3     H2       HT       0.417000        1.0080           0
     42031 WT3      3585     TIP3     OH2      OT      -0.834000       15.9994           0
     42032 WT3      3585     TIP3     H1       HT       0.417000        1.0080           0
     42033 WT3      3585     TIP3     H2       HT       0.417000        1.0080           0
     42034 WT3      3586     TIP3     OH2      OT      -0.834000       15.9994           0
     42035 WT3      3586     TIP3     H1       HT       0.417000        1.0080           0
     42036 WT3      3586     TIP3     H2       HT       0.417000        1.0080           0
     42037 WT3      3587     TIP3     OH2      OT      -0.834000       15.9994           0
     42038 WT3      3587     TIP3     H1       HT       0.417000        1.0080           0
     42039 WT3      3587     TIP3     H2       HT       0.417000        1.0080           0
     42040 WT3      3588     TIP3     OH2      OT      -0.834000       15.9994           0
     42041 WT3      3588     TIP3     H1       HT       0.417000        1.0080           0
     42042 WT3      3588     TIP3     H2       HT       0.417000        1.0080           0
     42043 WT3      3589     TIP3     OH2      OT      -0.834000       15.9994           0
     42044 WT3      3589     TIP3     H1       HT       0.417000        1.0080           0
     42045 WT3      3589     TIP3     H2       HT       0.417000        1.0080           0
     42046 WT3      3590     TIP3     OH2      OT      -0.834000       15.9994           0
     42047 WT3      3590     TIP3     H1       HT       0.417000        1.0080           0
     42048 WT3      3590     TIP3     H2       HT       0.417000        1.0080           0
     42049 WT3      3593     TIP3     OH2      OT      -0.834000       15.9994           0
     42050 WT3      3593     TIP3     H1       HT       0.417000        1.0080           0
     42051 WT3      3593     TIP3     H2       HT       0.417000        1.0080           0
     42052 WT3      3595     TIP3     OH2      OT      -0.834000       15.9994           0
     42053 WT3      3595     TIP3     H1       HT       0.417000        1.0080           0
     42054 WT3      3595     TIP3     H2       HT       0.417000        1.0080           0
     42055 WT3      3596     TIP3     OH2      OT      -0.834000       15.9994           0
     42056 WT3      3596     TIP3     H1       HT       0.417000        1.0080           0
     42057 WT3      3596     TIP3     H2       HT       0.417000        1.0080           0
     42058 WT3      3597     TIP3     OH2      OT      -0.834000       15.9994           0
     42059 WT3      3597     TIP3     H1       HT       0.417000        1.0080           0
     42060 WT3      3597     TIP3     H2       HT       0.417000        1.0080           0
     42061 WT3      3598     TIP3     OH2      OT      -0.834000       15.9994           0
     42062 WT3      3598     TIP3     H1       HT       0.417000        1.0080           0
     42063 WT3      3598     TIP3     H2       HT       0.417000        1.0080           0
     42064 WT3      3599     TIP3     OH2      OT      -0.834000       15.9994           0
     42065 WT3      3599     TIP3     H1       HT       0.417000        1.0080           0
     42066 WT3      3599     TIP3     H2       HT       0.417000        1.0080           0
     42067 WT3      3600     TIP3     OH2      OT      -0.834000       15.9994           0
     42068 WT3      3600     TIP3     H1       HT       0.417000        1.0080           0
     42069 WT3      3600     TIP3     H2       HT       0.417000        1.0080           0
     42070 WT3      3601     TIP3     OH2      OT      -0.834000       15.9994           0
     42071 WT3      3601     TIP3     H1       HT       0.417000        1.0080           0
     42072 WT3      3601     TIP3     H2       HT       0.417000        1.0080           0
     42073 WT3      3602     TIP3     OH2      OT      -0.834000       15.9994           0
     42074 WT3      3602     TIP3     H1       HT       0.417000        1.0080           0
     42075 WT3      3602     TIP3     H2       HT       0.417000        1.0080           0
     42076 WT3      3603     TIP3     OH2      OT      -0.834000       15.9994           0
     42077 WT3      3603     TIP3     H1       HT       0.417000        1.0080           0
     42078 WT3      3603     TIP3     H2       HT       0.417000        1.0080           0
     42079 WT3      3604     TIP3     OH2      OT      -0.834000       15.9994           0
     42080 WT3      3604     TIP3     H1       HT       0.417000        1.0080           0
     42081 WT3      3604     TIP3     H2       HT       0.417000        1.0080           0
     42082 WT3      3606     TIP3     OH2      OT      -0.834000       15.9994           0
     42083 WT3      3606     TIP3     H1       HT       0.417000        1.0080           0
     42084 WT3      3606     TIP3     H2       HT       0.417000        1.0080           0
     42085 WT3      3607     TIP3     OH2      OT      -0.834000       15.9994           0
     42086 WT3      3607     TIP3     H1       HT       0.417000        1.0080           0
     42087 WT3      3607     TIP3     H2       HT       0.417000        1.0080           0
     42088 WT3      3608     TIP3     OH2      OT      -0.834000       15.9994           0
     42089 WT3      3608     TIP3     H1       HT       0.417000        1.0080           0
     42090 WT3      3608     TIP3     H2       HT       0.417000        1.0080           0
     42091 WT3      3609     TIP3     OH2      OT      -0.834000       15.9994           0
     42092 WT3      3609     TIP3     H1       HT       0.417000        1.0080           0
     42093 WT3      3609     TIP3     H2       HT       0.417000        1.0080           0
     42094 WT3      3610     TIP3     OH2      OT      -0.834000       15.9994           0
     42095 WT3      3610     TIP3     H1       HT       0.417000        1.0080           0
     42096 WT3      3610     TIP3     H2       HT       0.417000        1.0080           0
     42097 WT3      3611     TIP3     OH2      OT      -0.834000       15.9994           0
     42098 WT3      3611     TIP3     H1       HT       0.417000        1.0080           0
     42099 WT3      3611     TIP3     H2       HT       0.417000        1.0080           0
     42100 WT3      3612     TIP3     OH2      OT      -0.834000       15.9994           0
     42101 WT3      3612     TIP3     H1       HT       0.417000        1.0080           0
     42102 WT3      3612     TIP3     H2       HT       0.417000        1.0080           0
     42103 WT3      3613     TIP3     OH2      OT      -0.834000       15.9994           0
     42104 WT3      3613     TIP3     H1       HT       0.417000        1.0080           0
     42105 WT3      3613     TIP3     H2       HT       0.417000        1.0080           0
     42106 WT3      3614     TIP3     OH2      OT      -0.834000       15.9994           0
     42107 WT3      3614     TIP3     H1       HT       0.417000        1.0080           0
     42108 WT3      3614     TIP3     H2       HT       0.417000        1.0080           0
     42109 WT3      3615     TIP3     OH2      OT      -0.834000       15.9994           0
     42110 WT3      3615     TIP3     H1       HT       0.417000        1.0080           0
     42111 WT3      3615     TIP3     H2       HT       0.417000        1.0080           0
     42112 WT3      3616     TIP3     OH2      OT      -0.834000       15.9994           0
     42113 WT3      3616     TIP3     H1       HT       0.417000        1.0080           0
     42114 WT3      3616     TIP3     H2       HT       0.417000        1.0080           0
     42115 WT3      3618     TIP3     OH2      OT      -0.834000       15.9994           0
     42116 WT3      3618     TIP3     H1       HT       0.417000        1.0080           0
     42117 WT3      3618     TIP3     H2       HT       0.417000        1.0080           0
     42118 WT3      3619     TIP3     OH2      OT      -0.834000       15.9994           0
     42119 WT3      3619     TIP3     H1       HT       0.417000        1.0080           0
     42120 WT3      3619     TIP3     H2       HT       0.417000        1.0080           0
     42121 WT3      3620     TIP3     OH2      OT      -0.834000       15.9994           0
     42122 WT3      3620     TIP3     H1       HT       0.417000        1.0080           0
     42123 WT3      3620     TIP3     H2       HT       0.417000        1.0080           0
     42124 WT3      3621     TIP3     OH2      OT      -0.834000       15.9994           0
     42125 WT3      3621     TIP3     H1       HT       0.417000        1.0080           0
     42126 WT3      3621     TIP3     H2       HT       0.417000        1.0080           0
     42127 WT3      3622     TIP3     OH2      OT      -0.834000       15.9994           0
     42128 WT3      3622     TIP3     H1       HT       0.417000        1.0080           0
     42129 WT3      3622     TIP3     H2       HT       0.417000        1.0080           0
     42130 WT3      3623     TIP3     OH2      OT      -0.834000       15.9994           0
     42131 WT3      3623     TIP3     H1       HT       0.417000        1.0080           0
     42132 WT3      3623     TIP3     H2       HT       0.417000        1.0080           0
     42133 WT3      3624     TIP3     OH2      OT      -0.834000       15.9994           0
     42134 WT3      3624     TIP3     H1       HT       0.417000        1.0080           0
     42135 WT3      3624     TIP3     H2       HT       0.417000        1.0080           0
     42136 WT3      3626     TIP3     OH2      OT      -0.834000       15.9994           0
     42137 WT3      3626     TIP3     H1       HT       0.417000        1.0080           0
     42138 WT3      3626     TIP3     H2       HT       0.417000        1.0080           0
     42139 WT3      3627     TIP3     OH2      OT      -0.834000       15.9994           0
     42140 WT3      3627     TIP3     H1       HT       0.417000        1.0080           0
     42141 WT3      3627     TIP3     H2       HT       0.417000        1.0080           0
     42142 WT3      3628     TIP3     OH2      OT      -0.834000       15.9994           0
     42143 WT3      3628     TIP3     H1       HT       0.417000        1.0080           0
     42144 WT3      3628     TIP3     H2       HT       0.417000        1.0080           0
     42145 WT3      3629     TIP3     OH2      OT      -0.834000       15.9994           0
     42146 WT3      3629     TIP3     H1       HT       0.417000        1.0080           0
     42147 WT3      3629     TIP3     H2       HT       0.417000        1.0080           0
     42148 WT3      3630     TIP3     OH2      OT      -0.834000       15.9994           0
     42149 WT3      3630     TIP3     H1       HT       0.417000        1.0080           0
     42150 WT3      3630     TIP3     H2       HT       0.417000        1.0080           0
     42151 WT3      3632     TIP3     OH2      OT      -0.834000       15.9994           0
     42152 WT3      3632     TIP3     H1       HT       0.417000        1.0080           0
     42153 WT3      3632     TIP3     H2       HT       0.417000        1.0080           0
     42154 WT3      3633     TIP3     OH2      OT      -0.834000       15.9994           0
     42155 WT3      3633     TIP3     H1       HT       0.417000        1.0080           0
     42156 WT3      3633     TIP3     H2       HT       0.417000        1.0080           0
     42157 WT3      3635     TIP3     OH2      OT      -0.834000       15.9994           0
     42158 WT3      3635     TIP3     H1       HT       0.417000        1.0080           0
     42159 WT3      3635     TIP3     H2       HT       0.417000        1.0080           0
     42160 WT3      3636     TIP3     OH2      OT      -0.834000       15.9994           0
     42161 WT3      3636     TIP3     H1       HT       0.417000        1.0080           0
     42162 WT3      3636     TIP3     H2       HT       0.417000        1.0080           0
     42163 WT3      3639     TIP3     OH2      OT      -0.834000       15.9994           0
     42164 WT3      3639     TIP3     H1       HT       0.417000        1.0080           0
     42165 WT3      3639     TIP3     H2       HT       0.417000        1.0080           0
     42166 WT3      3640     TIP3     OH2      OT      -0.834000       15.9994           0
     42167 WT3      3640     TIP3     H1       HT       0.417000        1.0080           0
     42168 WT3      3640     TIP3     H2       HT       0.417000        1.0080           0
     42169 WT3      3641     TIP3     OH2      OT      -0.834000       15.9994           0
     42170 WT3      3641     TIP3     H1       HT       0.417000        1.0080           0
     42171 WT3      3641     TIP3     H2       HT       0.417000        1.0080           0
     42172 WT3      3642     TIP3     OH2      OT      -0.834000       15.9994           0
     42173 WT3      3642     TIP3     H1       HT       0.417000        1.0080           0
     42174 WT3      3642     TIP3     H2       HT       0.417000        1.0080           0
     42175 WT3      3643     TIP3     OH2      OT      -0.834000       15.9994           0
     42176 WT3      3643     TIP3     H1       HT       0.417000        1.0080           0
     42177 WT3      3643     TIP3     H2       HT       0.417000        1.0080           0
     42178 WT3      3646     TIP3     OH2      OT      -0.834000       15.9994           0
     42179 WT3      3646     TIP3     H1       HT       0.417000        1.0080           0
     42180 WT3      3646     TIP3     H2       HT       0.417000        1.0080           0
     42181 WT3      3647     TIP3     OH2      OT      -0.834000       15.9994           0
     42182 WT3      3647     TIP3     H1       HT       0.417000        1.0080           0
     42183 WT3      3647     TIP3     H2       HT       0.417000        1.0080           0
     42184 WT3      3648     TIP3     OH2      OT      -0.834000       15.9994           0
     42185 WT3      3648     TIP3     H1       HT       0.417000        1.0080           0
     42186 WT3      3648     TIP3     H2       HT       0.417000        1.0080           0
     42187 WT3      3650     TIP3     OH2      OT      -0.834000       15.9994           0
     42188 WT3      3650     TIP3     H1       HT       0.417000        1.0080           0
     42189 WT3      3650     TIP3     H2       HT       0.417000        1.0080           0
     42190 WT3      3651     TIP3     OH2      OT      -0.834000       15.9994           0
     42191 WT3      3651     TIP3     H1       HT       0.417000        1.0080           0
     42192 WT3      3651     TIP3     H2       HT       0.417000        1.0080           0
     42193 WT3      3652     TIP3     OH2      OT      -0.834000       15.9994           0
     42194 WT3      3652     TIP3     H1       HT       0.417000        1.0080           0
     42195 WT3      3652     TIP3     H2       HT       0.417000        1.0080           0
     42196 WT3      3653     TIP3     OH2      OT      -0.834000       15.9994           0
     42197 WT3      3653     TIP3     H1       HT       0.417000        1.0080           0
     42198 WT3      3653     TIP3     H2       HT       0.417000        1.0080           0
     42199 WT3      3654     TIP3     OH2      OT      -0.834000       15.9994           0
     42200 WT3      3654     TIP3     H1       HT       0.417000        1.0080           0
     42201 WT3      3654     TIP3     H2       HT       0.417000        1.0080           0
     42202 WT3      3655     TIP3     OH2      OT      -0.834000       15.9994           0
     42203 WT3      3655     TIP3     H1       HT       0.417000        1.0080           0
     42204 WT3      3655     TIP3     H2       HT       0.417000        1.0080           0
     42205 WT3      3656     TIP3     OH2      OT      -0.834000       15.9994           0
     42206 WT3      3656     TIP3     H1       HT       0.417000        1.0080           0
     42207 WT3      3656     TIP3     H2       HT       0.417000        1.0080           0
     42208 WT3      3657     TIP3     OH2      OT      -0.834000       15.9994           0
     42209 WT3      3657     TIP3     H1       HT       0.417000        1.0080           0
     42210 WT3      3657     TIP3     H2       HT       0.417000        1.0080           0
     42211 WT3      3658     TIP3     OH2      OT      -0.834000       15.9994           0
     42212 WT3      3658     TIP3     H1       HT       0.417000        1.0080           0
     42213 WT3      3658     TIP3     H2       HT       0.417000        1.0080           0
     42214 WT3      3660     TIP3     OH2      OT      -0.834000       15.9994           0
     42215 WT3      3660     TIP3     H1       HT       0.417000        1.0080           0
     42216 WT3      3660     TIP3     H2       HT       0.417000        1.0080           0
     42217 WT3      3661     TIP3     OH2      OT      -0.834000       15.9994           0
     42218 WT3      3661     TIP3     H1       HT       0.417000        1.0080           0
     42219 WT3      3661     TIP3     H2       HT       0.417000        1.0080           0
     42220 WT3      3662     TIP3     OH2      OT      -0.834000       15.9994           0
     42221 WT3      3662     TIP3     H1       HT       0.417000        1.0080           0
     42222 WT3      3662     TIP3     H2       HT       0.417000        1.0080           0
     42223 WT3      3663     TIP3     OH2      OT      -0.834000       15.9994           0
     42224 WT3      3663     TIP3     H1       HT       0.417000        1.0080           0
     42225 WT3      3663     TIP3     H2       HT       0.417000        1.0080           0
     42226 WT3      3665     TIP3     OH2      OT      -0.834000       15.9994           0
     42227 WT3      3665     TIP3     H1       HT       0.417000        1.0080           0
     42228 WT3      3665     TIP3     H2       HT       0.417000        1.0080           0
     42229 WT3      3666     TIP3     OH2      OT      -0.834000       15.9994           0
     42230 WT3      3666     TIP3     H1       HT       0.417000        1.0080           0
     42231 WT3      3666     TIP3     H2       HT       0.417000        1.0080           0
     42232 WT3      3667     TIP3     OH2      OT      -0.834000       15.9994           0
     42233 WT3      3667     TIP3     H1       HT       0.417000        1.0080           0
     42234 WT3      3667     TIP3     H2       HT       0.417000        1.0080           0
     42235 WT3      3668     TIP3     OH2      OT      -0.834000       15.9994           0
     42236 WT3      3668     TIP3     H1       HT       0.417000        1.0080           0
     42237 WT3      3668     TIP3     H2       HT       0.417000        1.0080           0
     42238 WT3      3670     TIP3     OH2      OT      -0.834000       15.9994           0
     42239 WT3      3670     TIP3     H1       HT       0.417000        1.0080           0
     42240 WT3      3670     TIP3     H2       HT       0.417000        1.0080           0
     42241 WT3      3671     TIP3     OH2      OT      -0.834000       15.9994           0
     42242 WT3      3671     TIP3     H1       HT       0.417000        1.0080           0
     42243 WT3      3671     TIP3     H2       HT       0.417000        1.0080           0
     42244 WT3      3673     TIP3     OH2      OT      -0.834000       15.9994           0
     42245 WT3      3673     TIP3     H1       HT       0.417000        1.0080           0
     42246 WT3      3673     TIP3     H2       HT       0.417000        1.0080           0
     42247 WT3      3674     TIP3     OH2      OT      -0.834000       15.9994           0
     42248 WT3      3674     TIP3     H1       HT       0.417000        1.0080           0
     42249 WT3      3674     TIP3     H2       HT       0.417000        1.0080           0
     42250 WT3      3676     TIP3     OH2      OT      -0.834000       15.9994           0
     42251 WT3      3676     TIP3     H1       HT       0.417000        1.0080           0
     42252 WT3      3676     TIP3     H2       HT       0.417000        1.0080           0
     42253 WT3      3678     TIP3     OH2      OT      -0.834000       15.9994           0
     42254 WT3      3678     TIP3     H1       HT       0.417000        1.0080           0
     42255 WT3      3678     TIP3     H2       HT       0.417000        1.0080           0
     42256 WT3      3680     TIP3     OH2      OT      -0.834000       15.9994           0
     42257 WT3      3680     TIP3     H1       HT       0.417000        1.0080           0
     42258 WT3      3680     TIP3     H2       HT       0.417000        1.0080           0
     42259 WT3      3682     TIP3     OH2      OT      -0.834000       15.9994           0
     42260 WT3      3682     TIP3     H1       HT       0.417000        1.0080           0
     42261 WT3      3682     TIP3     H2       HT       0.417000        1.0080           0
     42262 WT3      3684     TIP3     OH2      OT      -0.834000       15.9994           0
     42263 WT3      3684     TIP3     H1       HT       0.417000        1.0080           0
     42264 WT3      3684     TIP3     H2       HT       0.417000        1.0080           0
     42265 WT3      3686     TIP3     OH2      OT      -0.834000       15.9994           0
     42266 WT3      3686     TIP3     H1       HT       0.417000        1.0080           0
     42267 WT3      3686     TIP3     H2       HT       0.417000        1.0080           0
     42268 WT3      3689     TIP3     OH2      OT      -0.834000       15.9994           0
     42269 WT3      3689     TIP3     H1       HT       0.417000        1.0080           0
     42270 WT3      3689     TIP3     H2       HT       0.417000        1.0080           0
     42271 WT3      3690     TIP3     OH2      OT      -0.834000       15.9994           0
     42272 WT3      3690     TIP3     H1       HT       0.417000        1.0080           0
     42273 WT3      3690     TIP3     H2       HT       0.417000        1.0080           0
     42274 WT3      3691     TIP3     OH2      OT      -0.834000       15.9994           0
     42275 WT3      3691     TIP3     H1       HT       0.417000        1.0080           0
     42276 WT3      3691     TIP3     H2       HT       0.417000        1.0080           0
     42277 WT3      3692     TIP3     OH2      OT      -0.834000       15.9994           0
     42278 WT3      3692     TIP3     H1       HT       0.417000        1.0080           0
     42279 WT3      3692     TIP3     H2       HT       0.417000        1.0080           0
     42280 WT3      3694     TIP3     OH2      OT      -0.834000       15.9994           0
     42281 WT3      3694     TIP3     H1       HT       0.417000        1.0080           0
     42282 WT3      3694     TIP3     H2       HT       0.417000        1.0080           0
     42283 WT3      3695     TIP3     OH2      OT      -0.834000       15.9994           0
     42284 WT3      3695     TIP3     H1       HT       0.417000        1.0080           0
     42285 WT3      3695     TIP3     H2       HT       0.417000        1.0080           0
     42286 WT3      3696     TIP3     OH2      OT      -0.834000       15.9994           0
     42287 WT3      3696     TIP3     H1       HT       0.417000        1.0080           0
     42288 WT3      3696     TIP3     H2       HT       0.417000        1.0080           0
     42289 WT3      3701     TIP3     OH2      OT      -0.834000       15.9994           0
     42290 WT3      3701     TIP3     H1       HT       0.417000        1.0080           0
     42291 WT3      3701     TIP3     H2       HT       0.417000        1.0080           0
     42292 WT3      3704     TIP3     OH2      OT      -0.834000       15.9994           0
     42293 WT3      3704     TIP3     H1       HT       0.417000        1.0080           0
     42294 WT3      3704     TIP3     H2       HT       0.417000        1.0080           0
     42295 WT3      3710     TIP3     OH2      OT      -0.834000       15.9994           0
     42296 WT3      3710     TIP3     H1       HT       0.417000        1.0080           0
     42297 WT3      3710     TIP3     H2       HT       0.417000        1.0080           0
     42298 WT3      3715     TIP3     OH2      OT      -0.834000       15.9994           0
     42299 WT3      3715     TIP3     H1       HT       0.417000        1.0080           0
     42300 WT3      3715     TIP3     H2       HT       0.417000        1.0080           0
     42301 WT3      3716     TIP3     OH2      OT      -0.834000       15.9994           0
     42302 WT3      3716     TIP3     H1       HT       0.417000        1.0080           0
     42303 WT3      3716     TIP3     H2       HT       0.417000        1.0080           0
     42304 WT3      3721     TIP3     OH2      OT      -0.834000       15.9994           0
     42305 WT3      3721     TIP3     H1       HT       0.417000        1.0080           0
     42306 WT3      3721     TIP3     H2       HT       0.417000        1.0080           0
     42307 WT3      3727     TIP3     OH2      OT      -0.834000       15.9994           0
     42308 WT3      3727     TIP3     H1       HT       0.417000        1.0080           0
     42309 WT3      3727     TIP3     H2       HT       0.417000        1.0080           0
     42310 WT3      3729     TIP3     OH2      OT      -0.834000       15.9994           0
     42311 WT3      3729     TIP3     H1       HT       0.417000        1.0080           0
     42312 WT3      3729     TIP3     H2       HT       0.417000        1.0080           0
     42313 WT3      3736     TIP3     OH2      OT      -0.834000       15.9994           0
     42314 WT3      3736     TIP3     H1       HT       0.417000        1.0080           0
     42315 WT3      3736     TIP3     H2       HT       0.417000        1.0080           0
     42316 WT3      3750     TIP3     OH2      OT      -0.834000       15.9994           0
     42317 WT3      3750     TIP3     H1       HT       0.417000        1.0080           0
     42318 WT3      3750     TIP3     H2       HT       0.417000        1.0080           0
     42319 WT3      3751     TIP3     OH2      OT      -0.834000       15.9994           0
     42320 WT3      3751     TIP3     H1       HT       0.417000        1.0080           0
     42321 WT3      3751     TIP3     H2       HT       0.417000        1.0080           0
     42322 WT3      3757     TIP3     OH2      OT      -0.834000       15.9994           0
     42323 WT3      3757     TIP3     H1       HT       0.417000        1.0080           0
     42324 WT3      3757     TIP3     H2       HT       0.417000        1.0080           0
     42325 WT3      3787     TIP3     OH2      OT      -0.834000       15.9994           0
     42326 WT3      3787     TIP3     H1       HT       0.417000        1.0080           0
     42327 WT3      3787     TIP3     H2       HT       0.417000        1.0080           0
     42328 WT3      3834     TIP3     OH2      OT      -0.834000       15.9994           0
     42329 WT3      3834     TIP3     H1       HT       0.417000        1.0080           0
     42330 WT3      3834     TIP3     H2       HT       0.417000        1.0080           0
     42331 WT3      3906     TIP3     OH2      OT      -0.834000       15.9994           0
     42332 WT3      3906     TIP3     H1       HT       0.417000        1.0080           0
     42333 WT3      3906     TIP3     H2       HT       0.417000        1.0080           0
     42334 WT3      3919     TIP3     OH2      OT      -0.834000       15.9994           0
     42335 WT3      3919     TIP3     H1       HT       0.417000        1.0080           0
     42336 WT3      3919     TIP3     H2       HT       0.417000        1.0080           0
     42337 WT3      3924     TIP3     OH2      OT      -0.834000       15.9994           0
     42338 WT3      3924     TIP3     H1       HT       0.417000        1.0080           0
     42339 WT3      3924     TIP3     H2       HT       0.417000        1.0080           0
     42340 WT3      3925     TIP3     OH2      OT      -0.834000       15.9994           0
     42341 WT3      3925     TIP3     H1       HT       0.417000        1.0080           0
     42342 WT3      3925     TIP3     H2       HT       0.417000        1.0080           0
     42343 WT3      3931     TIP3     OH2      OT      -0.834000       15.9994           0
     42344 WT3      3931     TIP3     H1       HT       0.417000        1.0080           0
     42345 WT3      3931     TIP3     H2       HT       0.417000        1.0080           0
     42346 WT3      3933     TIP3     OH2      OT      -0.834000       15.9994           0
     42347 WT3      3933     TIP3     H1       HT       0.417000        1.0080           0
     42348 WT3      3933     TIP3     H2       HT       0.417000        1.0080           0
     42349 WT3      3935     TIP3     OH2      OT      -0.834000       15.9994           0
     42350 WT3      3935     TIP3     H1       HT       0.417000        1.0080           0
     42351 WT3      3935     TIP3     H2       HT       0.417000        1.0080           0
     42352 WT3      3938     TIP3     OH2      OT      -0.834000       15.9994           0
     42353 WT3      3938     TIP3     H1       HT       0.417000        1.0080           0
     42354 WT3      3938     TIP3     H2       HT       0.417000        1.0080           0
     42355 WT3      3943     TIP3     OH2      OT      -0.834000       15.9994           0
     42356 WT3      3943     TIP3     H1       HT       0.417000        1.0080           0
     42357 WT3      3943     TIP3     H2       HT       0.417000        1.0080           0
     42358 WT3      3950     TIP3     OH2      OT      -0.834000       15.9994           0
     42359 WT3      3950     TIP3     H1       HT       0.417000        1.0080           0
     42360 WT3      3950     TIP3     H2       HT       0.417000        1.0080           0
     42361 WT3      3951     TIP3     OH2      OT      -0.834000       15.9994           0
     42362 WT3      3951     TIP3     H1       HT       0.417000        1.0080           0
     42363 WT3      3951     TIP3     H2       HT       0.417000        1.0080           0
     42364 WT3      3953     TIP3     OH2      OT      -0.834000       15.9994           0
     42365 WT3      3953     TIP3     H1       HT       0.417000        1.0080           0
     42366 WT3      3953     TIP3     H2       HT       0.417000        1.0080           0
     42367 WT3      3957     TIP3     OH2      OT      -0.834000       15.9994           0
     42368 WT3      3957     TIP3     H1       HT       0.417000        1.0080           0
     42369 WT3      3957     TIP3     H2       HT       0.417000        1.0080           0
     42370 WT3      3964     TIP3     OH2      OT      -0.834000       15.9994           0
     42371 WT3      3964     TIP3     H1       HT       0.417000        1.0080           0
     42372 WT3      3964     TIP3     H2       HT       0.417000        1.0080           0
     42373 WT3      3967     TIP3     OH2      OT      -0.834000       15.9994           0
     42374 WT3      3967     TIP3     H1       HT       0.417000        1.0080           0
     42375 WT3      3967     TIP3     H2       HT       0.417000        1.0080           0
     42376 WT3      3968     TIP3     OH2      OT      -0.834000       15.9994           0
     42377 WT3      3968     TIP3     H1       HT       0.417000        1.0080           0
     42378 WT3      3968     TIP3     H2       HT       0.417000        1.0080           0
     42379 WT3      3973     TIP3     OH2      OT      -0.834000       15.9994           0
     42380 WT3      3973     TIP3     H1       HT       0.417000        1.0080           0
     42381 WT3      3973     TIP3     H2       HT       0.417000        1.0080           0
     42382 WT3      3974     TIP3     OH2      OT      -0.834000       15.9994           0
     42383 WT3      3974     TIP3     H1       HT       0.417000        1.0080           0
     42384 WT3      3974     TIP3     H2       HT       0.417000        1.0080           0
     42385 WT3      3975     TIP3     OH2      OT      -0.834000       15.9994           0
     42386 WT3      3975     TIP3     H1       HT       0.417000        1.0080           0
     42387 WT3      3975     TIP3     H2       HT       0.417000        1.0080           0
     42388 WT3      3976     TIP3     OH2      OT      -0.834000       15.9994           0
     42389 WT3      3976     TIP3     H1       HT       0.417000        1.0080           0
     42390 WT3      3976     TIP3     H2       HT       0.417000        1.0080           0
     42391 WT3      3977     TIP3     OH2      OT      -0.834000       15.9994           0
     42392 WT3      3977     TIP3     H1       HT       0.417000        1.0080           0
     42393 WT3      3977     TIP3     H2       HT       0.417000        1.0080           0
     42394 WT3      3982     TIP3     OH2      OT      -0.834000       15.9994           0
     42395 WT3      3982     TIP3     H1       HT       0.417000        1.0080           0
     42396 WT3      3982     TIP3     H2       HT       0.417000        1.0080           0
     42397 WT3      3983     TIP3     OH2      OT      -0.834000       15.9994           0
     42398 WT3      3983     TIP3     H1       HT       0.417000        1.0080           0
     42399 WT3      3983     TIP3     H2       HT       0.417000        1.0080           0
     42400 WT3      3985     TIP3     OH2      OT      -0.834000       15.9994           0
     42401 WT3      3985     TIP3     H1       HT       0.417000        1.0080           0
     42402 WT3      3985     TIP3     H2       HT       0.417000        1.0080           0
     42403 WT3      3986     TIP3     OH2      OT      -0.834000       15.9994           0
     42404 WT3      3986     TIP3     H1       HT       0.417000        1.0080           0
     42405 WT3      3986     TIP3     H2       HT       0.417000        1.0080           0
     42406 WT3      3989     TIP3     OH2      OT      -0.834000       15.9994           0
     42407 WT3      3989     TIP3     H1       HT       0.417000        1.0080           0
     42408 WT3      3989     TIP3     H2       HT       0.417000        1.0080           0
     42409 WT3      3990     TIP3     OH2      OT      -0.834000       15.9994           0
     42410 WT3      3990     TIP3     H1       HT       0.417000        1.0080           0
     42411 WT3      3990     TIP3     H2       HT       0.417000        1.0080           0
     42412 WT3      3991     TIP3     OH2      OT      -0.834000       15.9994           0
     42413 WT3      3991     TIP3     H1       HT       0.417000        1.0080           0
     42414 WT3      3991     TIP3     H2       HT       0.417000        1.0080           0
     42415 WT3      3992     TIP3     OH2      OT      -0.834000       15.9994           0
     42416 WT3      3992     TIP3     H1       HT       0.417000        1.0080           0
     42417 WT3      3992     TIP3     H2       HT       0.417000        1.0080           0
     42418 WT3      3993     TIP3     OH2      OT      -0.834000       15.9994           0
     42419 WT3      3993     TIP3     H1       HT       0.417000        1.0080           0
     42420 WT3      3993     TIP3     H2       HT       0.417000        1.0080           0
     42421 WT3      3995     TIP3     OH2      OT      -0.834000       15.9994           0
     42422 WT3      3995     TIP3     H1       HT       0.417000        1.0080           0
     42423 WT3      3995     TIP3     H2       HT       0.417000        1.0080           0
     42424 WT3      3996     TIP3     OH2      OT      -0.834000       15.9994           0
     42425 WT3      3996     TIP3     H1       HT       0.417000        1.0080           0
     42426 WT3      3996     TIP3     H2       HT       0.417000        1.0080           0
     42427 WT3      3997     TIP3     OH2      OT      -0.834000       15.9994           0
     42428 WT3      3997     TIP3     H1       HT       0.417000        1.0080           0
     42429 WT3      3997     TIP3     H2       HT       0.417000        1.0080           0
     42430 WT3      3998     TIP3     OH2      OT      -0.834000       15.9994           0
     42431 WT3      3998     TIP3     H1       HT       0.417000        1.0080           0
     42432 WT3      3998     TIP3     H2       HT       0.417000        1.0080           0
     42433 WT3      3999     TIP3     OH2      OT      -0.834000       15.9994           0
     42434 WT3      3999     TIP3     H1       HT       0.417000        1.0080           0
     42435 WT3      3999     TIP3     H2       HT       0.417000        1.0080           0
     42436 WT3      4000     TIP3     OH2      OT      -0.834000       15.9994           0
     42437 WT3      4000     TIP3     H1       HT       0.417000        1.0080           0
     42438 WT3      4000     TIP3     H2       HT       0.417000        1.0080           0
     42439 WT3      4001     TIP3     OH2      OT      -0.834000       15.9994           0
     42440 WT3      4001     TIP3     H1       HT       0.417000        1.0080           0
     42441 WT3      4001     TIP3     H2       HT       0.417000        1.0080           0
     42442 WT3      4002     TIP3     OH2      OT      -0.834000       15.9994           0
     42443 WT3      4002     TIP3     H1       HT       0.417000        1.0080           0
     42444 WT3      4002     TIP3     H2       HT       0.417000        1.0080           0
     42445 WT3      4003     TIP3     OH2      OT      -0.834000       15.9994           0
     42446 WT3      4003     TIP3     H1       HT       0.417000        1.0080           0
     42447 WT3      4003     TIP3     H2       HT       0.417000        1.0080           0
     42448 WT3      4004     TIP3     OH2      OT      -0.834000       15.9994           0
     42449 WT3      4004     TIP3     H1       HT       0.417000        1.0080           0
     42450 WT3      4004     TIP3     H2       HT       0.417000        1.0080           0
     42451 WT3      4005     TIP3     OH2      OT      -0.834000       15.9994           0
     42452 WT3      4005     TIP3     H1       HT       0.417000        1.0080           0
     42453 WT3      4005     TIP3     H2       HT       0.417000        1.0080           0
     42454 WT3      4006     TIP3     OH2      OT      -0.834000       15.9994           0
     42455 WT3      4006     TIP3     H1       HT       0.417000        1.0080           0
     42456 WT3      4006     TIP3     H2       HT       0.417000        1.0080           0
     42457 WT3      4007     TIP3     OH2      OT      -0.834000       15.9994           0
     42458 WT3      4007     TIP3     H1       HT       0.417000        1.0080           0
     42459 WT3      4007     TIP3     H2       HT       0.417000        1.0080           0
     42460 WT3      4008     TIP3     OH2      OT      -0.834000       15.9994           0
     42461 WT3      4008     TIP3     H1       HT       0.417000        1.0080           0
     42462 WT3      4008     TIP3     H2       HT       0.417000        1.0080           0
     42463 WT3      4009     TIP3     OH2      OT      -0.834000       15.9994           0
     42464 WT3      4009     TIP3     H1       HT       0.417000        1.0080           0
     42465 WT3      4009     TIP3     H2       HT       0.417000        1.0080           0
     42466 WT3      4010     TIP3     OH2      OT      -0.834000       15.9994           0
     42467 WT3      4010     TIP3     H1       HT       0.417000        1.0080           0
     42468 WT3      4010     TIP3     H2       HT       0.417000        1.0080           0
     42469 WT3      4012     TIP3     OH2      OT      -0.834000       15.9994           0
     42470 WT3      4012     TIP3     H1       HT       0.417000        1.0080           0
     42471 WT3      4012     TIP3     H2       HT       0.417000        1.0080           0
     42472 WT3      4013     TIP3     OH2      OT      -0.834000       15.9994           0
     42473 WT3      4013     TIP3     H1       HT       0.417000        1.0080           0
     42474 WT3      4013     TIP3     H2       HT       0.417000        1.0080           0
     42475 WT3      4014     TIP3     OH2      OT      -0.834000       15.9994           0
     42476 WT3      4014     TIP3     H1       HT       0.417000        1.0080           0
     42477 WT3      4014     TIP3     H2       HT       0.417000        1.0080           0
     42478 WT3      4015     TIP3     OH2      OT      -0.834000       15.9994           0
     42479 WT3      4015     TIP3     H1       HT       0.417000        1.0080           0
     42480 WT3      4015     TIP3     H2       HT       0.417000        1.0080           0
     42481 WT3      4016     TIP3     OH2      OT      -0.834000       15.9994           0
     42482 WT3      4016     TIP3     H1       HT       0.417000        1.0080           0
     42483 WT3      4016     TIP3     H2       HT       0.417000        1.0080           0
     42484 WT3      4017     TIP3     OH2      OT      -0.834000       15.9994           0
     42485 WT3      4017     TIP3     H1       HT       0.417000        1.0080           0
     42486 WT3      4017     TIP3     H2       HT       0.417000        1.0080           0
     42487 WT3      4018     TIP3     OH2      OT      -0.834000       15.9994           0
     42488 WT3      4018     TIP3     H1       HT       0.417000        1.0080           0
     42489 WT3      4018     TIP3     H2       HT       0.417000        1.0080           0
     42490 WT3      4019     TIP3     OH2      OT      -0.834000       15.9994           0
     42491 WT3      4019     TIP3     H1       HT       0.417000        1.0080           0
     42492 WT3      4019     TIP3     H2       HT       0.417000        1.0080           0
     42493 WT3      4020     TIP3     OH2      OT      -0.834000       15.9994           0
     42494 WT3      4020     TIP3     H1       HT       0.417000        1.0080           0
     42495 WT3      4020     TIP3     H2       HT       0.417000        1.0080           0
     42496 WT3      4021     TIP3     OH2      OT      -0.834000       15.9994           0
     42497 WT3      4021     TIP3     H1       HT       0.417000        1.0080           0
     42498 WT3      4021     TIP3     H2       HT       0.417000        1.0080           0
     42499 WT3      4022     TIP3     OH2      OT      -0.834000       15.9994           0
     42500 WT3      4022     TIP3     H1       HT       0.417000        1.0080           0
     42501 WT3      4022     TIP3     H2       HT       0.417000        1.0080           0
     42502 WT3      4023     TIP3     OH2      OT      -0.834000       15.9994           0
     42503 WT3      4023     TIP3     H1       HT       0.417000        1.0080           0
     42504 WT3      4023     TIP3     H2       HT       0.417000        1.0080           0
     42505 WT3      4025     TIP3     OH2      OT      -0.834000       15.9994           0
     42506 WT3      4025     TIP3     H1       HT       0.417000        1.0080           0
     42507 WT3      4025     TIP3     H2       HT       0.417000        1.0080           0
     42508 WT3      4026     TIP3     OH2      OT      -0.834000       15.9994           0
     42509 WT3      4026     TIP3     H1       HT       0.417000        1.0080           0
     42510 WT3      4026     TIP3     H2       HT       0.417000        1.0080           0
     42511 WT3      4027     TIP3     OH2      OT      -0.834000       15.9994           0
     42512 WT3      4027     TIP3     H1       HT       0.417000        1.0080           0
     42513 WT3      4027     TIP3     H2       HT       0.417000        1.0080           0
     42514 WT3      4030     TIP3     OH2      OT      -0.834000       15.9994           0
     42515 WT3      4030     TIP3     H1       HT       0.417000        1.0080           0
     42516 WT3      4030     TIP3     H2       HT       0.417000        1.0080           0
     42517 WT3      4031     TIP3     OH2      OT      -0.834000       15.9994           0
     42518 WT3      4031     TIP3     H1       HT       0.417000        1.0080           0
     42519 WT3      4031     TIP3     H2       HT       0.417000        1.0080           0
     42520 WT3      4032     TIP3     OH2      OT      -0.834000       15.9994           0
     42521 WT3      4032     TIP3     H1       HT       0.417000        1.0080           0
     42522 WT3      4032     TIP3     H2       HT       0.417000        1.0080           0
     42523 WT3      4034     TIP3     OH2      OT      -0.834000       15.9994           0
     42524 WT3      4034     TIP3     H1       HT       0.417000        1.0080           0
     42525 WT3      4034     TIP3     H2       HT       0.417000        1.0080           0
     42526 WT3      4035     TIP3     OH2      OT      -0.834000       15.9994           0
     42527 WT3      4035     TIP3     H1       HT       0.417000        1.0080           0
     42528 WT3      4035     TIP3     H2       HT       0.417000        1.0080           0
     42529 WT3      4036     TIP3     OH2      OT      -0.834000       15.9994           0
     42530 WT3      4036     TIP3     H1       HT       0.417000        1.0080           0
     42531 WT3      4036     TIP3     H2       HT       0.417000        1.0080           0
     42532 WT3      4037     TIP3     OH2      OT      -0.834000       15.9994           0
     42533 WT3      4037     TIP3     H1       HT       0.417000        1.0080           0
     42534 WT3      4037     TIP3     H2       HT       0.417000        1.0080           0
     42535 WT3      4039     TIP3     OH2      OT      -0.834000       15.9994           0
     42536 WT3      4039     TIP3     H1       HT       0.417000        1.0080           0
     42537 WT3      4039     TIP3     H2       HT       0.417000        1.0080           0
     42538 WT3      4040     TIP3     OH2      OT      -0.834000       15.9994           0
     42539 WT3      4040     TIP3     H1       HT       0.417000        1.0080           0
     42540 WT3      4040     TIP3     H2       HT       0.417000        1.0080           0
     42541 WT3      4041     TIP3     OH2      OT      -0.834000       15.9994           0
     42542 WT3      4041     TIP3     H1       HT       0.417000        1.0080           0
     42543 WT3      4041     TIP3     H2       HT       0.417000        1.0080           0
     42544 WT3      4042     TIP3     OH2      OT      -0.834000       15.9994           0
     42545 WT3      4042     TIP3     H1       HT       0.417000        1.0080           0
     42546 WT3      4042     TIP3     H2       HT       0.417000        1.0080           0
     42547 WT3      4043     TIP3     OH2      OT      -0.834000       15.9994           0
     42548 WT3      4043     TIP3     H1       HT       0.417000        1.0080           0
     42549 WT3      4043     TIP3     H2       HT       0.417000        1.0080           0
     42550 WT3      4044     TIP3     OH2      OT      -0.834000       15.9994           0
     42551 WT3      4044     TIP3     H1       HT       0.417000        1.0080           0
     42552 WT3      4044     TIP3     H2       HT       0.417000        1.0080           0
     42553 WT3      4045     TIP3     OH2      OT      -0.834000       15.9994           0
     42554 WT3      4045     TIP3     H1       HT       0.417000        1.0080           0
     42555 WT3      4045     TIP3     H2       HT       0.417000        1.0080           0
     42556 WT3      4046     TIP3     OH2      OT      -0.834000       15.9994           0
     42557 WT3      4046     TIP3     H1       HT       0.417000        1.0080           0
     42558 WT3      4046     TIP3     H2       HT       0.417000        1.0080           0
     42559 WT3      4047     TIP3     OH2      OT      -0.834000       15.9994           0
     42560 WT3      4047     TIP3     H1       HT       0.417000        1.0080           0
     42561 WT3      4047     TIP3     H2       HT       0.417000        1.0080           0
     42562 WT3      4049     TIP3     OH2      OT      -0.834000       15.9994           0
     42563 WT3      4049     TIP3     H1       HT       0.417000        1.0080           0
     42564 WT3      4049     TIP3     H2       HT       0.417000        1.0080           0
     42565 WT3      4050     TIP3     OH2      OT      -0.834000       15.9994           0
     42566 WT3      4050     TIP3     H1       HT       0.417000        1.0080           0
     42567 WT3      4050     TIP3     H2       HT       0.417000        1.0080           0
     42568 WT3      4052     TIP3     OH2      OT      -0.834000       15.9994           0
     42569 WT3      4052     TIP3     H1       HT       0.417000        1.0080           0
     42570 WT3      4052     TIP3     H2       HT       0.417000        1.0080           0
     42571 WT3      4053     TIP3     OH2      OT      -0.834000       15.9994           0
     42572 WT3      4053     TIP3     H1       HT       0.417000        1.0080           0
     42573 WT3      4053     TIP3     H2       HT       0.417000        1.0080           0
     42574 WT3      4055     TIP3     OH2      OT      -0.834000       15.9994           0
     42575 WT3      4055     TIP3     H1       HT       0.417000        1.0080           0
     42576 WT3      4055     TIP3     H2       HT       0.417000        1.0080           0
     42577 WT3      4056     TIP3     OH2      OT      -0.834000       15.9994           0
     42578 WT3      4056     TIP3     H1       HT       0.417000        1.0080           0
     42579 WT3      4056     TIP3     H2       HT       0.417000        1.0080           0
     42580 WT3      4057     TIP3     OH2      OT      -0.834000       15.9994           0
     42581 WT3      4057     TIP3     H1       HT       0.417000        1.0080           0
     42582 WT3      4057     TIP3     H2       HT       0.417000        1.0080           0
     42583 WT3      4060     TIP3     OH2      OT      -0.834000       15.9994           0
     42584 WT3      4060     TIP3     H1       HT       0.417000        1.0080           0
     42585 WT3      4060     TIP3     H2       HT       0.417000        1.0080           0
     42586 WT3      4061     TIP3     OH2      OT      -0.834000       15.9994           0
     42587 WT3      4061     TIP3     H1       HT       0.417000        1.0080           0
     42588 WT3      4061     TIP3     H2       HT       0.417000        1.0080           0
     42589 WT3      4062     TIP3     OH2      OT      -0.834000       15.9994           0
     42590 WT3      4062     TIP3     H1       HT       0.417000        1.0080           0
     42591 WT3      4062     TIP3     H2       HT       0.417000        1.0080           0
     42592 WT3      4063     TIP3     OH2      OT      -0.834000       15.9994           0
     42593 WT3      4063     TIP3     H1       HT       0.417000        1.0080           0
     42594 WT3      4063     TIP3     H2       HT       0.417000        1.0080           0
     42595 WT3      4065     TIP3     OH2      OT      -0.834000       15.9994           0
     42596 WT3      4065     TIP3     H1       HT       0.417000        1.0080           0
     42597 WT3      4065     TIP3     H2       HT       0.417000        1.0080           0
     42598 WT3      4068     TIP3     OH2      OT      -0.834000       15.9994           0
     42599 WT3      4068     TIP3     H1       HT       0.417000        1.0080           0
     42600 WT3      4068     TIP3     H2       HT       0.417000        1.0080           0
     42601 WT3      4069     TIP3     OH2      OT      -0.834000       15.9994           0
     42602 WT3      4069     TIP3     H1       HT       0.417000        1.0080           0
     42603 WT3      4069     TIP3     H2       HT       0.417000        1.0080           0
     42604 WT3      4070     TIP3     OH2      OT      -0.834000       15.9994           0
     42605 WT3      4070     TIP3     H1       HT       0.417000        1.0080           0
     42606 WT3      4070     TIP3     H2       HT       0.417000        1.0080           0
     42607 WT3      4072     TIP3     OH2      OT      -0.834000       15.9994           0
     42608 WT3      4072     TIP3     H1       HT       0.417000        1.0080           0
     42609 WT3      4072     TIP3     H2       HT       0.417000        1.0080           0
     42610 WT3      4073     TIP3     OH2      OT      -0.834000       15.9994           0
     42611 WT3      4073     TIP3     H1       HT       0.417000        1.0080           0
     42612 WT3      4073     TIP3     H2       HT       0.417000        1.0080           0
     42613 WT3      4074     TIP3     OH2      OT      -0.834000       15.9994           0
     42614 WT3      4074     TIP3     H1       HT       0.417000        1.0080           0
     42615 WT3      4074     TIP3     H2       HT       0.417000        1.0080           0
     42616 WT3      4075     TIP3     OH2      OT      -0.834000       15.9994           0
     42617 WT3      4075     TIP3     H1       HT       0.417000        1.0080           0
     42618 WT3      4075     TIP3     H2       HT       0.417000        1.0080           0
     42619 WT3      4076     TIP3     OH2      OT      -0.834000       15.9994           0
     42620 WT3      4076     TIP3     H1       HT       0.417000        1.0080           0
     42621 WT3      4076     TIP3     H2       HT       0.417000        1.0080           0
     42622 WT3      4077     TIP3     OH2      OT      -0.834000       15.9994           0
     42623 WT3      4077     TIP3     H1       HT       0.417000        1.0080           0
     42624 WT3      4077     TIP3     H2       HT       0.417000        1.0080           0
     42625 WT3      4078     TIP3     OH2      OT      -0.834000       15.9994           0
     42626 WT3      4078     TIP3     H1       HT       0.417000        1.0080           0
     42627 WT3      4078     TIP3     H2       HT       0.417000        1.0080           0
     42628 WT3      4079     TIP3     OH2      OT      -0.834000       15.9994           0
     42629 WT3      4079     TIP3     H1       HT       0.417000        1.0080           0
     42630 WT3      4079     TIP3     H2       HT       0.417000        1.0080           0
     42631 WT3      4081     TIP3     OH2      OT      -0.834000       15.9994           0
     42632 WT3      4081     TIP3     H1       HT       0.417000        1.0080           0
     42633 WT3      4081     TIP3     H2       HT       0.417000        1.0080           0
     42634 WT3      4082     TIP3     OH2      OT      -0.834000       15.9994           0
     42635 WT3      4082     TIP3     H1       HT       0.417000        1.0080           0
     42636 WT3      4082     TIP3     H2       HT       0.417000        1.0080           0
     42637 WT3      4084     TIP3     OH2      OT      -0.834000       15.9994           0
     42638 WT3      4084     TIP3     H1       HT       0.417000        1.0080           0
     42639 WT3      4084     TIP3     H2       HT       0.417000        1.0080           0
     42640 WT3      4085     TIP3     OH2      OT      -0.834000       15.9994           0
     42641 WT3      4085     TIP3     H1       HT       0.417000        1.0080           0
     42642 WT3      4085     TIP3     H2       HT       0.417000        1.0080           0
     42643 WT3      4087     TIP3     OH2      OT      -0.834000       15.9994           0
     42644 WT3      4087     TIP3     H1       HT       0.417000        1.0080           0
     42645 WT3      4087     TIP3     H2       HT       0.417000        1.0080           0
     42646 WT3      4089     TIP3     OH2      OT      -0.834000       15.9994           0
     42647 WT3      4089     TIP3     H1       HT       0.417000        1.0080           0
     42648 WT3      4089     TIP3     H2       HT       0.417000        1.0080           0
     42649 WT3      4090     TIP3     OH2      OT      -0.834000       15.9994           0
     42650 WT3      4090     TIP3     H1       HT       0.417000        1.0080           0
     42651 WT3      4090     TIP3     H2       HT       0.417000        1.0080           0
     42652 WT3      4092     TIP3     OH2      OT      -0.834000       15.9994           0
     42653 WT3      4092     TIP3     H1       HT       0.417000        1.0080           0
     42654 WT3      4092     TIP3     H2       HT       0.417000        1.0080           0
     42655 WT3      4095     TIP3     OH2      OT      -0.834000       15.9994           0
     42656 WT3      4095     TIP3     H1       HT       0.417000        1.0080           0
     42657 WT3      4095     TIP3     H2       HT       0.417000        1.0080           0
     42658 WT3      4096     TIP3     OH2      OT      -0.834000       15.9994           0
     42659 WT3      4096     TIP3     H1       HT       0.417000        1.0080           0
     42660 WT3      4096     TIP3     H2       HT       0.417000        1.0080           0
     42661 WT3      4098     TIP3     OH2      OT      -0.834000       15.9994           0
     42662 WT3      4098     TIP3     H1       HT       0.417000        1.0080           0
     42663 WT3      4098     TIP3     H2       HT       0.417000        1.0080           0
     42664 WT3      4099     TIP3     OH2      OT      -0.834000       15.9994           0
     42665 WT3      4099     TIP3     H1       HT       0.417000        1.0080           0
     42666 WT3      4099     TIP3     H2       HT       0.417000        1.0080           0
     42667 WT3      4103     TIP3     OH2      OT      -0.834000       15.9994           0
     42668 WT3      4103     TIP3     H1       HT       0.417000        1.0080           0
     42669 WT3      4103     TIP3     H2       HT       0.417000        1.0080           0
     42670 WT3      4104     TIP3     OH2      OT      -0.834000       15.9994           0
     42671 WT3      4104     TIP3     H1       HT       0.417000        1.0080           0
     42672 WT3      4104     TIP3     H2       HT       0.417000        1.0080           0
     42673 WT3      4106     TIP3     OH2      OT      -0.834000       15.9994           0
     42674 WT3      4106     TIP3     H1       HT       0.417000        1.0080           0
     42675 WT3      4106     TIP3     H2       HT       0.417000        1.0080           0
     42676 WT3      4108     TIP3     OH2      OT      -0.834000       15.9994           0
     42677 WT3      4108     TIP3     H1       HT       0.417000        1.0080           0
     42678 WT3      4108     TIP3     H2       HT       0.417000        1.0080           0
     42679 WT3      4109     TIP3     OH2      OT      -0.834000       15.9994           0
     42680 WT3      4109     TIP3     H1       HT       0.417000        1.0080           0
     42681 WT3      4109     TIP3     H2       HT       0.417000        1.0080           0
     42682 WT3      4111     TIP3     OH2      OT      -0.834000       15.9994           0
     42683 WT3      4111     TIP3     H1       HT       0.417000        1.0080           0
     42684 WT3      4111     TIP3     H2       HT       0.417000        1.0080           0
     42685 WT3      4113     TIP3     OH2      OT      -0.834000       15.9994           0
     42686 WT3      4113     TIP3     H1       HT       0.417000        1.0080           0
     42687 WT3      4113     TIP3     H2       HT       0.417000        1.0080           0
     42688 WT3      4115     TIP3     OH2      OT      -0.834000       15.9994           0
     42689 WT3      4115     TIP3     H1       HT       0.417000        1.0080           0
     42690 WT3      4115     TIP3     H2       HT       0.417000        1.0080           0
     42691 WT3      4117     TIP3     OH2      OT      -0.834000       15.9994           0
     42692 WT3      4117     TIP3     H1       HT       0.417000        1.0080           0
     42693 WT3      4117     TIP3     H2       HT       0.417000        1.0080           0
     42694 WT3      4118     TIP3     OH2      OT      -0.834000       15.9994           0
     42695 WT3      4118     TIP3     H1       HT       0.417000        1.0080           0
     42696 WT3      4118     TIP3     H2       HT       0.417000        1.0080           0
     42697 WT3      4121     TIP3     OH2      OT      -0.834000       15.9994           0
     42698 WT3      4121     TIP3     H1       HT       0.417000        1.0080           0
     42699 WT3      4121     TIP3     H2       HT       0.417000        1.0080           0
     42700 WT3      4122     TIP3     OH2      OT      -0.834000       15.9994           0
     42701 WT3      4122     TIP3     H1       HT       0.417000        1.0080           0
     42702 WT3      4122     TIP3     H2       HT       0.417000        1.0080           0
     42703 WT3      4127     TIP3     OH2      OT      -0.834000       15.9994           0
     42704 WT3      4127     TIP3     H1       HT       0.417000        1.0080           0
     42705 WT3      4127     TIP3     H2       HT       0.417000        1.0080           0
     42706 WT3      4128     TIP3     OH2      OT      -0.834000       15.9994           0
     42707 WT3      4128     TIP3     H1       HT       0.417000        1.0080           0
     42708 WT3      4128     TIP3     H2       HT       0.417000        1.0080           0
     42709 WT3      4130     TIP3     OH2      OT      -0.834000       15.9994           0
     42710 WT3      4130     TIP3     H1       HT       0.417000        1.0080           0
     42711 WT3      4130     TIP3     H2       HT       0.417000        1.0080           0
     42712 WT3      4131     TIP3     OH2      OT      -0.834000       15.9994           0
     42713 WT3      4131     TIP3     H1       HT       0.417000        1.0080           0
     42714 WT3      4131     TIP3     H2       HT       0.417000        1.0080           0
     42715 WT3      4132     TIP3     OH2      OT      -0.834000       15.9994           0
     42716 WT3      4132     TIP3     H1       HT       0.417000        1.0080           0
     42717 WT3      4132     TIP3     H2       HT       0.417000        1.0080           0
     42718 WT3      4133     TIP3     OH2      OT      -0.834000       15.9994           0
     42719 WT3      4133     TIP3     H1       HT       0.417000        1.0080           0
     42720 WT3      4133     TIP3     H2       HT       0.417000        1.0080           0
     42721 WT3      4136     TIP3     OH2      OT      -0.834000       15.9994           0
     42722 WT3      4136     TIP3     H1       HT       0.417000        1.0080           0
     42723 WT3      4136     TIP3     H2       HT       0.417000        1.0080           0
     42724 WT3      4138     TIP3     OH2      OT      -0.834000       15.9994           0
     42725 WT3      4138     TIP3     H1       HT       0.417000        1.0080           0
     42726 WT3      4138     TIP3     H2       HT       0.417000        1.0080           0
     42727 WT3      4141     TIP3     OH2      OT      -0.834000       15.9994           0
     42728 WT3      4141     TIP3     H1       HT       0.417000        1.0080           0
     42729 WT3      4141     TIP3     H2       HT       0.417000        1.0080           0
     42730 WT3      4143     TIP3     OH2      OT      -0.834000       15.9994           0
     42731 WT3      4143     TIP3     H1       HT       0.417000        1.0080           0
     42732 WT3      4143     TIP3     H2       HT       0.417000        1.0080           0
     42733 WT3      4144     TIP3     OH2      OT      -0.834000       15.9994           0
     42734 WT3      4144     TIP3     H1       HT       0.417000        1.0080           0
     42735 WT3      4144     TIP3     H2       HT       0.417000        1.0080           0
     42736 WT3      4145     TIP3     OH2      OT      -0.834000       15.9994           0
     42737 WT3      4145     TIP3     H1       HT       0.417000        1.0080           0
     42738 WT3      4145     TIP3     H2       HT       0.417000        1.0080           0
     42739 WT3      4151     TIP3     OH2      OT      -0.834000       15.9994           0
     42740 WT3      4151     TIP3     H1       HT       0.417000        1.0080           0
     42741 WT3      4151     TIP3     H2       HT       0.417000        1.0080           0
     42742 WT3      4152     TIP3     OH2      OT      -0.834000       15.9994           0
     42743 WT3      4152     TIP3     H1       HT       0.417000        1.0080           0
     42744 WT3      4152     TIP3     H2       HT       0.417000        1.0080           0
     42745 WT3      4156     TIP3     OH2      OT      -0.834000       15.9994           0
     42746 WT3      4156     TIP3     H1       HT       0.417000        1.0080           0
     42747 WT3      4156     TIP3     H2       HT       0.417000        1.0080           0
     42748 WT3      4160     TIP3     OH2      OT      -0.834000       15.9994           0
     42749 WT3      4160     TIP3     H1       HT       0.417000        1.0080           0
     42750 WT3      4160     TIP3     H2       HT       0.417000        1.0080           0
     42751 WT3      4161     TIP3     OH2      OT      -0.834000       15.9994           0
     42752 WT3      4161     TIP3     H1       HT       0.417000        1.0080           0
     42753 WT3      4161     TIP3     H2       HT       0.417000        1.0080           0
     42754 WT3      4163     TIP3     OH2      OT      -0.834000       15.9994           0
     42755 WT3      4163     TIP3     H1       HT       0.417000        1.0080           0
     42756 WT3      4163     TIP3     H2       HT       0.417000        1.0080           0
     42757 WT3      4164     TIP3     OH2      OT      -0.834000       15.9994           0
     42758 WT3      4164     TIP3     H1       HT       0.417000        1.0080           0
     42759 WT3      4164     TIP3     H2       HT       0.417000        1.0080           0
     42760 WT3      4177     TIP3     OH2      OT      -0.834000       15.9994           0
     42761 WT3      4177     TIP3     H1       HT       0.417000        1.0080           0
     42762 WT3      4177     TIP3     H2       HT       0.417000        1.0080           0
     42763 WT3      4179     TIP3     OH2      OT      -0.834000       15.9994           0
     42764 WT3      4179     TIP3     H1       HT       0.417000        1.0080           0
     42765 WT3      4179     TIP3     H2       HT       0.417000        1.0080           0
     42766 WT3      4186     TIP3     OH2      OT      -0.834000       15.9994           0
     42767 WT3      4186     TIP3     H1       HT       0.417000        1.0080           0
     42768 WT3      4186     TIP3     H2       HT       0.417000        1.0080           0
     42769 WT3      4201     TIP3     OH2      OT      -0.834000       15.9994           0
     42770 WT3      4201     TIP3     H1       HT       0.417000        1.0080           0
     42771 WT3      4201     TIP3     H2       HT       0.417000        1.0080           0
     42772 WT3      4202     TIP3     OH2      OT      -0.834000       15.9994           0
     42773 WT3      4202     TIP3     H1       HT       0.417000        1.0080           0
     42774 WT3      4202     TIP3     H2       HT       0.417000        1.0080           0
     42775 WT3      4221     TIP3     OH2      OT      -0.834000       15.9994           0
     42776 WT3      4221     TIP3     H1       HT       0.417000        1.0080           0
     42777 WT3      4221     TIP3     H2       HT       0.417000        1.0080           0
     42778 WT3      4278     TIP3     OH2      OT      -0.834000       15.9994           0
     42779 WT3      4278     TIP3     H1       HT       0.417000        1.0080           0
     42780 WT3      4278     TIP3     H2       HT       0.417000        1.0080           0
     42781 WT3      4286     TIP3     OH2      OT      -0.834000       15.9994           0
     42782 WT3      4286     TIP3     H1       HT       0.417000        1.0080           0
     42783 WT3      4286     TIP3     H2       HT       0.417000        1.0080           0
     42784 WT3      4319     TIP3     OH2      OT      -0.834000       15.9994           0
     42785 WT3      4319     TIP3     H1       HT       0.417000        1.0080           0
     42786 WT3      4319     TIP3     H2       HT       0.417000        1.0080           0
     42787 WT3      4323     TIP3     OH2      OT      -0.834000       15.9994           0
     42788 WT3      4323     TIP3     H1       HT       0.417000        1.0080           0
     42789 WT3      4323     TIP3     H2       HT       0.417000        1.0080           0
     42790 WT3      4347     TIP3     OH2      OT      -0.834000       15.9994           0
     42791 WT3      4347     TIP3     H1       HT       0.417000        1.0080           0
     42792 WT3      4347     TIP3     H2       HT       0.417000        1.0080           0
     42793 WT3      4356     TIP3     OH2      OT      -0.834000       15.9994           0
     42794 WT3      4356     TIP3     H1       HT       0.417000        1.0080           0
     42795 WT3      4356     TIP3     H2       HT       0.417000        1.0080           0
     42796 WT3      4365     TIP3     OH2      OT      -0.834000       15.9994           0
     42797 WT3      4365     TIP3     H1       HT       0.417000        1.0080           0
     42798 WT3      4365     TIP3     H2       HT       0.417000        1.0080           0
     42799 WT3      4374     TIP3     OH2      OT      -0.834000       15.9994           0
     42800 WT3      4374     TIP3     H1       HT       0.417000        1.0080           0
     42801 WT3      4374     TIP3     H2       HT       0.417000        1.0080           0
     42802 WT3      4380     TIP3     OH2      OT      -0.834000       15.9994           0
     42803 WT3      4380     TIP3     H1       HT       0.417000        1.0080           0
     42804 WT3      4380     TIP3     H2       HT       0.417000        1.0080           0
     42805 WT3      4382     TIP3     OH2      OT      -0.834000       15.9994           0
     42806 WT3      4382     TIP3     H1       HT       0.417000        1.0080           0
     42807 WT3      4382     TIP3     H2       HT       0.417000        1.0080           0
     42808 WT3      4386     TIP3     OH2      OT      -0.834000       15.9994           0
     42809 WT3      4386     TIP3     H1       HT       0.417000        1.0080           0
     42810 WT3      4386     TIP3     H2       HT       0.417000        1.0080           0
     42811 WT3      4390     TIP3     OH2      OT      -0.834000       15.9994           0
     42812 WT3      4390     TIP3     H1       HT       0.417000        1.0080           0
     42813 WT3      4390     TIP3     H2       HT       0.417000        1.0080           0
     42814 WT3      4394     TIP3     OH2      OT      -0.834000       15.9994           0
     42815 WT3      4394     TIP3     H1       HT       0.417000        1.0080           0
     42816 WT3      4394     TIP3     H2       HT       0.417000        1.0080           0
     42817 WT3      4396     TIP3     OH2      OT      -0.834000       15.9994           0
     42818 WT3      4396     TIP3     H1       HT       0.417000        1.0080           0
     42819 WT3      4396     TIP3     H2       HT       0.417000        1.0080           0
     42820 WT3      4401     TIP3     OH2      OT      -0.834000       15.9994           0
     42821 WT3      4401     TIP3     H1       HT       0.417000        1.0080           0
     42822 WT3      4401     TIP3     H2       HT       0.417000        1.0080           0
     42823 WT3      4404     TIP3     OH2      OT      -0.834000       15.9994           0
     42824 WT3      4404     TIP3     H1       HT       0.417000        1.0080           0
     42825 WT3      4404     TIP3     H2       HT       0.417000        1.0080           0
     42826 WT3      4405     TIP3     OH2      OT      -0.834000       15.9994           0
     42827 WT3      4405     TIP3     H1       HT       0.417000        1.0080           0
     42828 WT3      4405     TIP3     H2       HT       0.417000        1.0080           0
     42829 WT3      4407     TIP3     OH2      OT      -0.834000       15.9994           0
     42830 WT3      4407     TIP3     H1       HT       0.417000        1.0080           0
     42831 WT3      4407     TIP3     H2       HT       0.417000        1.0080           0
     42832 WT3      4409     TIP3     OH2      OT      -0.834000       15.9994           0
     42833 WT3      4409     TIP3     H1       HT       0.417000        1.0080           0
     42834 WT3      4409     TIP3     H2       HT       0.417000        1.0080           0
     42835 WT3      4412     TIP3     OH2      OT      -0.834000       15.9994           0
     42836 WT3      4412     TIP3     H1       HT       0.417000        1.0080           0
     42837 WT3      4412     TIP3     H2       HT       0.417000        1.0080           0
     42838 WT3      4414     TIP3     OH2      OT      -0.834000       15.9994           0
     42839 WT3      4414     TIP3     H1       HT       0.417000        1.0080           0
     42840 WT3      4414     TIP3     H2       HT       0.417000        1.0080           0
     42841 WT3      4415     TIP3     OH2      OT      -0.834000       15.9994           0
     42842 WT3      4415     TIP3     H1       HT       0.417000        1.0080           0
     42843 WT3      4415     TIP3     H2       HT       0.417000        1.0080           0
     42844 WT3      4417     TIP3     OH2      OT      -0.834000       15.9994           0
     42845 WT3      4417     TIP3     H1       HT       0.417000        1.0080           0
     42846 WT3      4417     TIP3     H2       HT       0.417000        1.0080           0
     42847 WT3      4419     TIP3     OH2      OT      -0.834000       15.9994           0
     42848 WT3      4419     TIP3     H1       HT       0.417000        1.0080           0
     42849 WT3      4419     TIP3     H2       HT       0.417000        1.0080           0
     42850 WT3      4420     TIP3     OH2      OT      -0.834000       15.9994           0
     42851 WT3      4420     TIP3     H1       HT       0.417000        1.0080           0
     42852 WT3      4420     TIP3     H2       HT       0.417000        1.0080           0
     42853 WT3      4421     TIP3     OH2      OT      -0.834000       15.9994           0
     42854 WT3      4421     TIP3     H1       HT       0.417000        1.0080           0
     42855 WT3      4421     TIP3     H2       HT       0.417000        1.0080           0
     42856 WT3      4422     TIP3     OH2      OT      -0.834000       15.9994           0
     42857 WT3      4422     TIP3     H1       HT       0.417000        1.0080           0
     42858 WT3      4422     TIP3     H2       HT       0.417000        1.0080           0
     42859 WT3      4427     TIP3     OH2      OT      -0.834000       15.9994           0
     42860 WT3      4427     TIP3     H1       HT       0.417000        1.0080           0
     42861 WT3      4427     TIP3     H2       HT       0.417000        1.0080           0
     42862 WT3      4428     TIP3     OH2      OT      -0.834000       15.9994           0
     42863 WT3      4428     TIP3     H1       HT       0.417000        1.0080           0
     42864 WT3      4428     TIP3     H2       HT       0.417000        1.0080           0
     42865 WT3      4429     TIP3     OH2      OT      -0.834000       15.9994           0
     42866 WT3      4429     TIP3     H1       HT       0.417000        1.0080           0
     42867 WT3      4429     TIP3     H2       HT       0.417000        1.0080           0
     42868 WT3      4432     TIP3     OH2      OT      -0.834000       15.9994           0
     42869 WT3      4432     TIP3     H1       HT       0.417000        1.0080           0
     42870 WT3      4432     TIP3     H2       HT       0.417000        1.0080           0
     42871 WT3      4433     TIP3     OH2      OT      -0.834000       15.9994           0
     42872 WT3      4433     TIP3     H1       HT       0.417000        1.0080           0
     42873 WT3      4433     TIP3     H2       HT       0.417000        1.0080           0
     42874 WT3      4434     TIP3     OH2      OT      -0.834000       15.9994           0
     42875 WT3      4434     TIP3     H1       HT       0.417000        1.0080           0
     42876 WT3      4434     TIP3     H2       HT       0.417000        1.0080           0
     42877 WT3      4436     TIP3     OH2      OT      -0.834000       15.9994           0
     42878 WT3      4436     TIP3     H1       HT       0.417000        1.0080           0
     42879 WT3      4436     TIP3     H2       HT       0.417000        1.0080           0
     42880 WT3      4437     TIP3     OH2      OT      -0.834000       15.9994           0
     42881 WT3      4437     TIP3     H1       HT       0.417000        1.0080           0
     42882 WT3      4437     TIP3     H2       HT       0.417000        1.0080           0
     42883 WT3      4438     TIP3     OH2      OT      -0.834000       15.9994           0
     42884 WT3      4438     TIP3     H1       HT       0.417000        1.0080           0
     42885 WT3      4438     TIP3     H2       HT       0.417000        1.0080           0
     42886 WT3      4441     TIP3     OH2      OT      -0.834000       15.9994           0
     42887 WT3      4441     TIP3     H1       HT       0.417000        1.0080           0
     42888 WT3      4441     TIP3     H2       HT       0.417000        1.0080           0
     42889 WT3      4442     TIP3     OH2      OT      -0.834000       15.9994           0
     42890 WT3      4442     TIP3     H1       HT       0.417000        1.0080           0
     42891 WT3      4442     TIP3     H2       HT       0.417000        1.0080           0
     42892 WT3      4443     TIP3     OH2      OT      -0.834000       15.9994           0
     42893 WT3      4443     TIP3     H1       HT       0.417000        1.0080           0
     42894 WT3      4443     TIP3     H2       HT       0.417000        1.0080           0
     42895 WT3      4446     TIP3     OH2      OT      -0.834000       15.9994           0
     42896 WT3      4446     TIP3     H1       HT       0.417000        1.0080           0
     42897 WT3      4446     TIP3     H2       HT       0.417000        1.0080           0
     42898 WT3      4449     TIP3     OH2      OT      -0.834000       15.9994           0
     42899 WT3      4449     TIP3     H1       HT       0.417000        1.0080           0
     42900 WT3      4449     TIP3     H2       HT       0.417000        1.0080           0
     42901 WT3      4451     TIP3     OH2      OT      -0.834000       15.9994           0
     42902 WT3      4451     TIP3     H1       HT       0.417000        1.0080           0
     42903 WT3      4451     TIP3     H2       HT       0.417000        1.0080           0
     42904 WT3      4453     TIP3     OH2      OT      -0.834000       15.9994           0
     42905 WT3      4453     TIP3     H1       HT       0.417000        1.0080           0
     42906 WT3      4453     TIP3     H2       HT       0.417000        1.0080           0
     42907 WT3      4455     TIP3     OH2      OT      -0.834000       15.9994           0
     42908 WT3      4455     TIP3     H1       HT       0.417000        1.0080           0
     42909 WT3      4455     TIP3     H2       HT       0.417000        1.0080           0
     42910 WT3      4456     TIP3     OH2      OT      -0.834000       15.9994           0
     42911 WT3      4456     TIP3     H1       HT       0.417000        1.0080           0
     42912 WT3      4456     TIP3     H2       HT       0.417000        1.0080           0
     42913 WT3      4459     TIP3     OH2      OT      -0.834000       15.9994           0
     42914 WT3      4459     TIP3     H1       HT       0.417000        1.0080           0
     42915 WT3      4459     TIP3     H2       HT       0.417000        1.0080           0
     42916 WT3      4460     TIP3     OH2      OT      -0.834000       15.9994           0
     42917 WT3      4460     TIP3     H1       HT       0.417000        1.0080           0
     42918 WT3      4460     TIP3     H2       HT       0.417000        1.0080           0
     42919 WT3      4461     TIP3     OH2      OT      -0.834000       15.9994           0
     42920 WT3      4461     TIP3     H1       HT       0.417000        1.0080           0
     42921 WT3      4461     TIP3     H2       HT       0.417000        1.0080           0
     42922 WT3      4462     TIP3     OH2      OT      -0.834000       15.9994           0
     42923 WT3      4462     TIP3     H1       HT       0.417000        1.0080           0
     42924 WT3      4462     TIP3     H2       HT       0.417000        1.0080           0
     42925 WT3      4463     TIP3     OH2      OT      -0.834000       15.9994           0
     42926 WT3      4463     TIP3     H1       HT       0.417000        1.0080           0
     42927 WT3      4463     TIP3     H2       HT       0.417000        1.0080           0
     42928 WT3      4464     TIP3     OH2      OT      -0.834000       15.9994           0
     42929 WT3      4464     TIP3     H1       HT       0.417000        1.0080           0
     42930 WT3      4464     TIP3     H2       HT       0.417000        1.0080           0
     42931 WT3      4465     TIP3     OH2      OT      -0.834000       15.9994           0
     42932 WT3      4465     TIP3     H1       HT       0.417000        1.0080           0
     42933 WT3      4465     TIP3     H2       HT       0.417000        1.0080           0
     42934 WT3      4466     TIP3     OH2      OT      -0.834000       15.9994           0
     42935 WT3      4466     TIP3     H1       HT       0.417000        1.0080           0
     42936 WT3      4466     TIP3     H2       HT       0.417000        1.0080           0
     42937 WT3      4467     TIP3     OH2      OT      -0.834000       15.9994           0
     42938 WT3      4467     TIP3     H1       HT       0.417000        1.0080           0
     42939 WT3      4467     TIP3     H2       HT       0.417000        1.0080           0
     42940 WT3      4468     TIP3     OH2      OT      -0.834000       15.9994           0
     42941 WT3      4468     TIP3     H1       HT       0.417000        1.0080           0
     42942 WT3      4468     TIP3     H2       HT       0.417000        1.0080           0
     42943 WT3      4469     TIP3     OH2      OT      -0.834000       15.9994           0
     42944 WT3      4469     TIP3     H1       HT       0.417000        1.0080           0
     42945 WT3      4469     TIP3     H2       HT       0.417000        1.0080           0
     42946 WT3      4470     TIP3     OH2      OT      -0.834000       15.9994           0
     42947 WT3      4470     TIP3     H1       HT       0.417000        1.0080           0
     42948 WT3      4470     TIP3     H2       HT       0.417000        1.0080           0
     42949 WT3      4472     TIP3     OH2      OT      -0.834000       15.9994           0
     42950 WT3      4472     TIP3     H1       HT       0.417000        1.0080           0
     42951 WT3      4472     TIP3     H2       HT       0.417000        1.0080           0
     42952 WT3      4473     TIP3     OH2      OT      -0.834000       15.9994           0
     42953 WT3      4473     TIP3     H1       HT       0.417000        1.0080           0
     42954 WT3      4473     TIP3     H2       HT       0.417000        1.0080           0
     42955 WT3      4475     TIP3     OH2      OT      -0.834000       15.9994           0
     42956 WT3      4475     TIP3     H1       HT       0.417000        1.0080           0
     42957 WT3      4475     TIP3     H2       HT       0.417000        1.0080           0
     42958 WT3      4476     TIP3     OH2      OT      -0.834000       15.9994           0
     42959 WT3      4476     TIP3     H1       HT       0.417000        1.0080           0
     42960 WT3      4476     TIP3     H2       HT       0.417000        1.0080           0
     42961 WT3      4477     TIP3     OH2      OT      -0.834000       15.9994           0
     42962 WT3      4477     TIP3     H1       HT       0.417000        1.0080           0
     42963 WT3      4477     TIP3     H2       HT       0.417000        1.0080           0
     42964 WT3      4478     TIP3     OH2      OT      -0.834000       15.9994           0
     42965 WT3      4478     TIP3     H1       HT       0.417000        1.0080           0
     42966 WT3      4478     TIP3     H2       HT       0.417000        1.0080           0
     42967 WT3      4479     TIP3     OH2      OT      -0.834000       15.9994           0
     42968 WT3      4479     TIP3     H1       HT       0.417000        1.0080           0
     42969 WT3      4479     TIP3     H2       HT       0.417000        1.0080           0
     42970 WT3      4480     TIP3     OH2      OT      -0.834000       15.9994           0
     42971 WT3      4480     TIP3     H1       HT       0.417000        1.0080           0
     42972 WT3      4480     TIP3     H2       HT       0.417000        1.0080           0
     42973 WT3      4482     TIP3     OH2      OT      -0.834000       15.9994           0
     42974 WT3      4482     TIP3     H1       HT       0.417000        1.0080           0
     42975 WT3      4482     TIP3     H2       HT       0.417000        1.0080           0
     42976 WT3      4483     TIP3     OH2      OT      -0.834000       15.9994           0
     42977 WT3      4483     TIP3     H1       HT       0.417000        1.0080           0
     42978 WT3      4483     TIP3     H2       HT       0.417000        1.0080           0
     42979 WT3      4485     TIP3     OH2      OT      -0.834000       15.9994           0
     42980 WT3      4485     TIP3     H1       HT       0.417000        1.0080           0
     42981 WT3      4485     TIP3     H2       HT       0.417000        1.0080           0
     42982 WT3      4487     TIP3     OH2      OT      -0.834000       15.9994           0
     42983 WT3      4487     TIP3     H1       HT       0.417000        1.0080           0
     42984 WT3      4487     TIP3     H2       HT       0.417000        1.0080           0
     42985 WT3      4489     TIP3     OH2      OT      -0.834000       15.9994           0
     42986 WT3      4489     TIP3     H1       HT       0.417000        1.0080           0
     42987 WT3      4489     TIP3     H2       HT       0.417000        1.0080           0
     42988 WT3      4493     TIP3     OH2      OT      -0.834000       15.9994           0
     42989 WT3      4493     TIP3     H1       HT       0.417000        1.0080           0
     42990 WT3      4493     TIP3     H2       HT       0.417000        1.0080           0
     42991 WT3      4495     TIP3     OH2      OT      -0.834000       15.9994           0
     42992 WT3      4495     TIP3     H1       HT       0.417000        1.0080           0
     42993 WT3      4495     TIP3     H2       HT       0.417000        1.0080           0
     42994 WT3      4496     TIP3     OH2      OT      -0.834000       15.9994           0
     42995 WT3      4496     TIP3     H1       HT       0.417000        1.0080           0
     42996 WT3      4496     TIP3     H2       HT       0.417000        1.0080           0
     42997 WT3      4498     TIP3     OH2      OT      -0.834000       15.9994           0
     42998 WT3      4498     TIP3     H1       HT       0.417000        1.0080           0
     42999 WT3      4498     TIP3     H2       HT       0.417000        1.0080           0
     43000 WT3      4499     TIP3     OH2      OT      -0.834000       15.9994           0
     43001 WT3      4499     TIP3     H1       HT       0.417000        1.0080           0
     43002 WT3      4499     TIP3     H2       HT       0.417000        1.0080           0
     43003 WT3      4500     TIP3     OH2      OT      -0.834000       15.9994           0
     43004 WT3      4500     TIP3     H1       HT       0.417000        1.0080           0
     43005 WT3      4500     TIP3     H2       HT       0.417000        1.0080           0
     43006 WT3      4501     TIP3     OH2      OT      -0.834000       15.9994           0
     43007 WT3      4501     TIP3     H1       HT       0.417000        1.0080           0
     43008 WT3      4501     TIP3     H2       HT       0.417000        1.0080           0
     43009 WT3      4502     TIP3     OH2      OT      -0.834000       15.9994           0
     43010 WT3      4502     TIP3     H1       HT       0.417000        1.0080           0
     43011 WT3      4502     TIP3     H2       HT       0.417000        1.0080           0
     43012 WT3      4504     TIP3     OH2      OT      -0.834000       15.9994           0
     43013 WT3      4504     TIP3     H1       HT       0.417000        1.0080           0
     43014 WT3      4504     TIP3     H2       HT       0.417000        1.0080           0
     43015 WT3      4505     TIP3     OH2      OT      -0.834000       15.9994           0
     43016 WT3      4505     TIP3     H1       HT       0.417000        1.0080           0
     43017 WT3      4505     TIP3     H2       HT       0.417000        1.0080           0
     43018 WT3      4506     TIP3     OH2      OT      -0.834000       15.9994           0
     43019 WT3      4506     TIP3     H1       HT       0.417000        1.0080           0
     43020 WT3      4506     TIP3     H2       HT       0.417000        1.0080           0
     43021 WT3      4507     TIP3     OH2      OT      -0.834000       15.9994           0
     43022 WT3      4507     TIP3     H1       HT       0.417000        1.0080           0
     43023 WT3      4507     TIP3     H2       HT       0.417000        1.0080           0
     43024 WT3      4508     TIP3     OH2      OT      -0.834000       15.9994           0
     43025 WT3      4508     TIP3     H1       HT       0.417000        1.0080           0
     43026 WT3      4508     TIP3     H2       HT       0.417000        1.0080           0
     43027 WT3      4509     TIP3     OH2      OT      -0.834000       15.9994           0
     43028 WT3      4509     TIP3     H1       HT       0.417000        1.0080           0
     43029 WT3      4509     TIP3     H2       HT       0.417000        1.0080           0
     43030 WT3      4511     TIP3     OH2      OT      -0.834000       15.9994           0
     43031 WT3      4511     TIP3     H1       HT       0.417000        1.0080           0
     43032 WT3      4511     TIP3     H2       HT       0.417000        1.0080           0
     43033 WT3      4513     TIP3     OH2      OT      -0.834000       15.9994           0
     43034 WT3      4513     TIP3     H1       HT       0.417000        1.0080           0
     43035 WT3      4513     TIP3     H2       HT       0.417000        1.0080           0
     43036 WT3      4514     TIP3     OH2      OT      -0.834000       15.9994           0
     43037 WT3      4514     TIP3     H1       HT       0.417000        1.0080           0
     43038 WT3      4514     TIP3     H2       HT       0.417000        1.0080           0
     43039 WT3      4515     TIP3     OH2      OT      -0.834000       15.9994           0
     43040 WT3      4515     TIP3     H1       HT       0.417000        1.0080           0
     43041 WT3      4515     TIP3     H2       HT       0.417000        1.0080           0
     43042 WT3      4517     TIP3     OH2      OT      -0.834000       15.9994           0
     43043 WT3      4517     TIP3     H1       HT       0.417000        1.0080           0
     43044 WT3      4517     TIP3     H2       HT       0.417000        1.0080           0
     43045 WT3      4519     TIP3     OH2      OT      -0.834000       15.9994           0
     43046 WT3      4519     TIP3     H1       HT       0.417000        1.0080           0
     43047 WT3      4519     TIP3     H2       HT       0.417000        1.0080           0
     43048 WT3      4520     TIP3     OH2      OT      -0.834000       15.9994           0
     43049 WT3      4520     TIP3     H1       HT       0.417000        1.0080           0
     43050 WT3      4520     TIP3     H2       HT       0.417000        1.0080           0
     43051 WT3      4522     TIP3     OH2      OT      -0.834000       15.9994           0
     43052 WT3      4522     TIP3     H1       HT       0.417000        1.0080           0
     43053 WT3      4522     TIP3     H2       HT       0.417000        1.0080           0
     43054 WT3      4523     TIP3     OH2      OT      -0.834000       15.9994           0
     43055 WT3      4523     TIP3     H1       HT       0.417000        1.0080           0
     43056 WT3      4523     TIP3     H2       HT       0.417000        1.0080           0
     43057 WT3      4524     TIP3     OH2      OT      -0.834000       15.9994           0
     43058 WT3      4524     TIP3     H1       HT       0.417000        1.0080           0
     43059 WT3      4524     TIP3     H2       HT       0.417000        1.0080           0
     43060 WT3      4526     TIP3     OH2      OT      -0.834000       15.9994           0
     43061 WT3      4526     TIP3     H1       HT       0.417000        1.0080           0
     43062 WT3      4526     TIP3     H2       HT       0.417000        1.0080           0
     43063 WT3      4527     TIP3     OH2      OT      -0.834000       15.9994           0
     43064 WT3      4527     TIP3     H1       HT       0.417000        1.0080           0
     43065 WT3      4527     TIP3     H2       HT       0.417000        1.0080           0
     43066 WT3      4528     TIP3     OH2      OT      -0.834000       15.9994           0
     43067 WT3      4528     TIP3     H1       HT       0.417000        1.0080           0
     43068 WT3      4528     TIP3     H2       HT       0.417000        1.0080           0
     43069 WT3      4529     TIP3     OH2      OT      -0.834000       15.9994           0
     43070 WT3      4529     TIP3     H1       HT       0.417000        1.0080           0
     43071 WT3      4529     TIP3     H2       HT       0.417000        1.0080           0
     43072 WT3      4530     TIP3     OH2      OT      -0.834000       15.9994           0
     43073 WT3      4530     TIP3     H1       HT       0.417000        1.0080           0
     43074 WT3      4530     TIP3     H2       HT       0.417000        1.0080           0
     43075 WT3      4531     TIP3     OH2      OT      -0.834000       15.9994           0
     43076 WT3      4531     TIP3     H1       HT       0.417000        1.0080           0
     43077 WT3      4531     TIP3     H2       HT       0.417000        1.0080           0
     43078 WT3      4532     TIP3     OH2      OT      -0.834000       15.9994           0
     43079 WT3      4532     TIP3     H1       HT       0.417000        1.0080           0
     43080 WT3      4532     TIP3     H2       HT       0.417000        1.0080           0
     43081 WT3      4533     TIP3     OH2      OT      -0.834000       15.9994           0
     43082 WT3      4533     TIP3     H1       HT       0.417000        1.0080           0
     43083 WT3      4533     TIP3     H2       HT       0.417000        1.0080           0
     43084 WT3      4534     TIP3     OH2      OT      -0.834000       15.9994           0
     43085 WT3      4534     TIP3     H1       HT       0.417000        1.0080           0
     43086 WT3      4534     TIP3     H2       HT       0.417000        1.0080           0
     43087 WT3      4536     TIP3     OH2      OT      -0.834000       15.9994           0
     43088 WT3      4536     TIP3     H1       HT       0.417000        1.0080           0
     43089 WT3      4536     TIP3     H2       HT       0.417000        1.0080           0
     43090 WT3      4537     TIP3     OH2      OT      -0.834000       15.9994           0
     43091 WT3      4537     TIP3     H1       HT       0.417000        1.0080           0
     43092 WT3      4537     TIP3     H2       HT       0.417000        1.0080           0
     43093 WT3      4538     TIP3     OH2      OT      -0.834000       15.9994           0
     43094 WT3      4538     TIP3     H1       HT       0.417000        1.0080           0
     43095 WT3      4538     TIP3     H2       HT       0.417000        1.0080           0
     43096 WT3      4539     TIP3     OH2      OT      -0.834000       15.9994           0
     43097 WT3      4539     TIP3     H1       HT       0.417000        1.0080           0
     43098 WT3      4539     TIP3     H2       HT       0.417000        1.0080           0
     43099 WT3      4541     TIP3     OH2      OT      -0.834000       15.9994           0
     43100 WT3      4541     TIP3     H1       HT       0.417000        1.0080           0
     43101 WT3      4541     TIP3     H2       HT       0.417000        1.0080           0
     43102 WT3      4543     TIP3     OH2      OT      -0.834000       15.9994           0
     43103 WT3      4543     TIP3     H1       HT       0.417000        1.0080           0
     43104 WT3      4543     TIP3     H2       HT       0.417000        1.0080           0
     43105 WT3      4544     TIP3     OH2      OT      -0.834000       15.9994           0
     43106 WT3      4544     TIP3     H1       HT       0.417000        1.0080           0
     43107 WT3      4544     TIP3     H2       HT       0.417000        1.0080           0
     43108 WT3      4546     TIP3     OH2      OT      -0.834000       15.9994           0
     43109 WT3      4546     TIP3     H1       HT       0.417000        1.0080           0
     43110 WT3      4546     TIP3     H2       HT       0.417000        1.0080           0
     43111 WT3      4549     TIP3     OH2      OT      -0.834000       15.9994           0
     43112 WT3      4549     TIP3     H1       HT       0.417000        1.0080           0
     43113 WT3      4549     TIP3     H2       HT       0.417000        1.0080           0
     43114 WT3      4550     TIP3     OH2      OT      -0.834000       15.9994           0
     43115 WT3      4550     TIP3     H1       HT       0.417000        1.0080           0
     43116 WT3      4550     TIP3     H2       HT       0.417000        1.0080           0
     43117 WT3      4552     TIP3     OH2      OT      -0.834000       15.9994           0
     43118 WT3      4552     TIP3     H1       HT       0.417000        1.0080           0
     43119 WT3      4552     TIP3     H2       HT       0.417000        1.0080           0
     43120 WT3      4554     TIP3     OH2      OT      -0.834000       15.9994           0
     43121 WT3      4554     TIP3     H1       HT       0.417000        1.0080           0
     43122 WT3      4554     TIP3     H2       HT       0.417000        1.0080           0
     43123 WT3      4555     TIP3     OH2      OT      -0.834000       15.9994           0
     43124 WT3      4555     TIP3     H1       HT       0.417000        1.0080           0
     43125 WT3      4555     TIP3     H2       HT       0.417000        1.0080           0
     43126 WT3      4557     TIP3     OH2      OT      -0.834000       15.9994           0
     43127 WT3      4557     TIP3     H1       HT       0.417000        1.0080           0
     43128 WT3      4557     TIP3     H2       HT       0.417000        1.0080           0
     43129 WT3      4558     TIP3     OH2      OT      -0.834000       15.9994           0
     43130 WT3      4558     TIP3     H1       HT       0.417000        1.0080           0
     43131 WT3      4558     TIP3     H2       HT       0.417000        1.0080           0
     43132 WT3      4561     TIP3     OH2      OT      -0.834000       15.9994           0
     43133 WT3      4561     TIP3     H1       HT       0.417000        1.0080           0
     43134 WT3      4561     TIP3     H2       HT       0.417000        1.0080           0
     43135 WT3      4562     TIP3     OH2      OT      -0.834000       15.9994           0
     43136 WT3      4562     TIP3     H1       HT       0.417000        1.0080           0
     43137 WT3      4562     TIP3     H2       HT       0.417000        1.0080           0
     43138 WT3      4568     TIP3     OH2      OT      -0.834000       15.9994           0
     43139 WT3      4568     TIP3     H1       HT       0.417000        1.0080           0
     43140 WT3      4568     TIP3     H2       HT       0.417000        1.0080           0
     43141 WT3      4569     TIP3     OH2      OT      -0.834000       15.9994           0
     43142 WT3      4569     TIP3     H1       HT       0.417000        1.0080           0
     43143 WT3      4569     TIP3     H2       HT       0.417000        1.0080           0
     43144 WT3      4570     TIP3     OH2      OT      -0.834000       15.9994           0
     43145 WT3      4570     TIP3     H1       HT       0.417000        1.0080           0
     43146 WT3      4570     TIP3     H2       HT       0.417000        1.0080           0
     43147 WT3      4571     TIP3     OH2      OT      -0.834000       15.9994           0
     43148 WT3      4571     TIP3     H1       HT       0.417000        1.0080           0
     43149 WT3      4571     TIP3     H2       HT       0.417000        1.0080           0
     43150 WT3      4572     TIP3     OH2      OT      -0.834000       15.9994           0
     43151 WT3      4572     TIP3     H1       HT       0.417000        1.0080           0
     43152 WT3      4572     TIP3     H2       HT       0.417000        1.0080           0
     43153 WT3      4573     TIP3     OH2      OT      -0.834000       15.9994           0
     43154 WT3      4573     TIP3     H1       HT       0.417000        1.0080           0
     43155 WT3      4573     TIP3     H2       HT       0.417000        1.0080           0
     43156 WT3      4574     TIP3     OH2      OT      -0.834000       15.9994           0
     43157 WT3      4574     TIP3     H1       HT       0.417000        1.0080           0
     43158 WT3      4574     TIP3     H2       HT       0.417000        1.0080           0
     43159 WT3      4575     TIP3     OH2      OT      -0.834000       15.9994           0
     43160 WT3      4575     TIP3     H1       HT       0.417000        1.0080           0
     43161 WT3      4575     TIP3     H2       HT       0.417000        1.0080           0
     43162 WT3      4576     TIP3     OH2      OT      -0.834000       15.9994           0
     43163 WT3      4576     TIP3     H1       HT       0.417000        1.0080           0
     43164 WT3      4576     TIP3     H2       HT       0.417000        1.0080           0
     43165 WT3      4581     TIP3     OH2      OT      -0.834000       15.9994           0
     43166 WT3      4581     TIP3     H1       HT       0.417000        1.0080           0
     43167 WT3      4581     TIP3     H2       HT       0.417000        1.0080           0
     43168 WT3      4582     TIP3     OH2      OT      -0.834000       15.9994           0
     43169 WT3      4582     TIP3     H1       HT       0.417000        1.0080           0
     43170 WT3      4582     TIP3     H2       HT       0.417000        1.0080           0
     43171 WT3      4585     TIP3     OH2      OT      -0.834000       15.9994           0
     43172 WT3      4585     TIP3     H1       HT       0.417000        1.0080           0
     43173 WT3      4585     TIP3     H2       HT       0.417000        1.0080           0
     43174 WT3      4586     TIP3     OH2      OT      -0.834000       15.9994           0
     43175 WT3      4586     TIP3     H1       HT       0.417000        1.0080           0
     43176 WT3      4586     TIP3     H2       HT       0.417000        1.0080           0
     43177 WT3      4588     TIP3     OH2      OT      -0.834000       15.9994           0
     43178 WT3      4588     TIP3     H1       HT       0.417000        1.0080           0
     43179 WT3      4588     TIP3     H2       HT       0.417000        1.0080           0
     43180 WT3      4596     TIP3     OH2      OT      -0.834000       15.9994           0
     43181 WT3      4596     TIP3     H1       HT       0.417000        1.0080           0
     43182 WT3      4596     TIP3     H2       HT       0.417000        1.0080           0
     43183 WT3      4598     TIP3     OH2      OT      -0.834000       15.9994           0
     43184 WT3      4598     TIP3     H1       HT       0.417000        1.0080           0
     43185 WT3      4598     TIP3     H2       HT       0.417000        1.0080           0
     43186 WT3      4606     TIP3     OH2      OT      -0.834000       15.9994           0
     43187 WT3      4606     TIP3     H1       HT       0.417000        1.0080           0
     43188 WT3      4606     TIP3     H2       HT       0.417000        1.0080           0
     43189 WT3      4607     TIP3     OH2      OT      -0.834000       15.9994           0
     43190 WT3      4607     TIP3     H1       HT       0.417000        1.0080           0
     43191 WT3      4607     TIP3     H2       HT       0.417000        1.0080           0
     43192 WT3      4610     TIP3     OH2      OT      -0.834000       15.9994           0
     43193 WT3      4610     TIP3     H1       HT       0.417000        1.0080           0
     43194 WT3      4610     TIP3     H2       HT       0.417000        1.0080           0
     43195 WT3      4612     TIP3     OH2      OT      -0.834000       15.9994           0
     43196 WT3      4612     TIP3     H1       HT       0.417000        1.0080           0
     43197 WT3      4612     TIP3     H2       HT       0.417000        1.0080           0
     43198 WT3      4615     TIP3     OH2      OT      -0.834000       15.9994           0
     43199 WT3      4615     TIP3     H1       HT       0.417000        1.0080           0
     43200 WT3      4615     TIP3     H2       HT       0.417000        1.0080           0
     43201 WT3      4616     TIP3     OH2      OT      -0.834000       15.9994           0
     43202 WT3      4616     TIP3     H1       HT       0.417000        1.0080           0
     43203 WT3      4616     TIP3     H2       HT       0.417000        1.0080           0
     43204 WT3      4617     TIP3     OH2      OT      -0.834000       15.9994           0
     43205 WT3      4617     TIP3     H1       HT       0.417000        1.0080           0
     43206 WT3      4617     TIP3     H2       HT       0.417000        1.0080           0
     43207 WT3      4619     TIP3     OH2      OT      -0.834000       15.9994           0
     43208 WT3      4619     TIP3     H1       HT       0.417000        1.0080           0
     43209 WT3      4619     TIP3     H2       HT       0.417000        1.0080           0
     43210 WT3      4624     TIP3     OH2      OT      -0.834000       15.9994           0
     43211 WT3      4624     TIP3     H1       HT       0.417000        1.0080           0
     43212 WT3      4624     TIP3     H2       HT       0.417000        1.0080           0
     43213 WT3      4626     TIP3     OH2      OT      -0.834000       15.9994           0
     43214 WT3      4626     TIP3     H1       HT       0.417000        1.0080           0
     43215 WT3      4626     TIP3     H2       HT       0.417000        1.0080           0
     43216 WT3      4701     TIP3     OH2      OT      -0.834000       15.9994           0
     43217 WT3      4701     TIP3     H1       HT       0.417000        1.0080           0
     43218 WT3      4701     TIP3     H2       HT       0.417000        1.0080           0
     43219 WT3      4739     TIP3     OH2      OT      -0.834000       15.9994           0
     43220 WT3      4739     TIP3     H1       HT       0.417000        1.0080           0
     43221 WT3      4739     TIP3     H2       HT       0.417000        1.0080           0
     43222 WT3      4786     TIP3     OH2      OT      -0.834000       15.9994           0
     43223 WT3      4786     TIP3     H1       HT       0.417000        1.0080           0
     43224 WT3      4786     TIP3     H2       HT       0.417000        1.0080           0
     43225 WT3      4797     TIP3     OH2      OT      -0.834000       15.9994           0
     43226 WT3      4797     TIP3     H1       HT       0.417000        1.0080           0
     43227 WT3      4797     TIP3     H2       HT       0.417000        1.0080           0
     43228 WT3      4798     TIP3     OH2      OT      -0.834000       15.9994           0
     43229 WT3      4798     TIP3     H1       HT       0.417000        1.0080           0
     43230 WT3      4798     TIP3     H2       HT       0.417000        1.0080           0
     43231 WT3      4799     TIP3     OH2      OT      -0.834000       15.9994           0
     43232 WT3      4799     TIP3     H1       HT       0.417000        1.0080           0
     43233 WT3      4799     TIP3     H2       HT       0.417000        1.0080           0
     43234 WT3      4800     TIP3     OH2      OT      -0.834000       15.9994           0
     43235 WT3      4800     TIP3     H1       HT       0.417000        1.0080           0
     43236 WT3      4800     TIP3     H2       HT       0.417000        1.0080           0
     43237 WT3      4801     TIP3     OH2      OT      -0.834000       15.9994           0
     43238 WT3      4801     TIP3     H1       HT       0.417000        1.0080           0
     43239 WT3      4801     TIP3     H2       HT       0.417000        1.0080           0
     43240 WT3      4807     TIP3     OH2      OT      -0.834000       15.9994           0
     43241 WT3      4807     TIP3     H1       HT       0.417000        1.0080           0
     43242 WT3      4807     TIP3     H2       HT       0.417000        1.0080           0
     43243 WT3      4808     TIP3     OH2      OT      -0.834000       15.9994           0
     43244 WT3      4808     TIP3     H1       HT       0.417000        1.0080           0
     43245 WT3      4808     TIP3     H2       HT       0.417000        1.0080           0
     43246 WT3      4809     TIP3     OH2      OT      -0.834000       15.9994           0
     43247 WT3      4809     TIP3     H1       HT       0.417000        1.0080           0
     43248 WT3      4809     TIP3     H2       HT       0.417000        1.0080           0
     43249 WT3      4814     TIP3     OH2      OT      -0.834000       15.9994           0
     43250 WT3      4814     TIP3     H1       HT       0.417000        1.0080           0
     43251 WT3      4814     TIP3     H2       HT       0.417000        1.0080           0
     43252 WT3      4815     TIP3     OH2      OT      -0.834000       15.9994           0
     43253 WT3      4815     TIP3     H1       HT       0.417000        1.0080           0
     43254 WT3      4815     TIP3     H2       HT       0.417000        1.0080           0
     43255 WT3      4820     TIP3     OH2      OT      -0.834000       15.9994           0
     43256 WT3      4820     TIP3     H1       HT       0.417000        1.0080           0
     43257 WT3      4820     TIP3     H2       HT       0.417000        1.0080           0
     43258 WT3      4821     TIP3     OH2      OT      -0.834000       15.9994           0
     43259 WT3      4821     TIP3     H1       HT       0.417000        1.0080           0
     43260 WT3      4821     TIP3     H2       HT       0.417000        1.0080           0
     43261 WT3      4822     TIP3     OH2      OT      -0.834000       15.9994           0
     43262 WT3      4822     TIP3     H1       HT       0.417000        1.0080           0
     43263 WT3      4822     TIP3     H2       HT       0.417000        1.0080           0
     43264 WT3      4829     TIP3     OH2      OT      -0.834000       15.9994           0
     43265 WT3      4829     TIP3     H1       HT       0.417000        1.0080           0
     43266 WT3      4829     TIP3     H2       HT       0.417000        1.0080           0
     43267 WT3      4834     TIP3     OH2      OT      -0.834000       15.9994           0
     43268 WT3      4834     TIP3     H1       HT       0.417000        1.0080           0
     43269 WT3      4834     TIP3     H2       HT       0.417000        1.0080           0
     43270 WT3      4835     TIP3     OH2      OT      -0.834000       15.9994           0
     43271 WT3      4835     TIP3     H1       HT       0.417000        1.0080           0
     43272 WT3      4835     TIP3     H2       HT       0.417000        1.0080           0
     43273 WT3      4836     TIP3     OH2      OT      -0.834000       15.9994           0
     43274 WT3      4836     TIP3     H1       HT       0.417000        1.0080           0
     43275 WT3      4836     TIP3     H2       HT       0.417000        1.0080           0
     43276 WT3      4837     TIP3     OH2      OT      -0.834000       15.9994           0
     43277 WT3      4837     TIP3     H1       HT       0.417000        1.0080           0
     43278 WT3      4837     TIP3     H2       HT       0.417000        1.0080           0
     43279 WT3      4844     TIP3     OH2      OT      -0.834000       15.9994           0
     43280 WT3      4844     TIP3     H1       HT       0.417000        1.0080           0
     43281 WT3      4844     TIP3     H2       HT       0.417000        1.0080           0
     43282 WT3      4845     TIP3     OH2      OT      -0.834000       15.9994           0
     43283 WT3      4845     TIP3     H1       HT       0.417000        1.0080           0
     43284 WT3      4845     TIP3     H2       HT       0.417000        1.0080           0
     43285 WT3      4847     TIP3     OH2      OT      -0.834000       15.9994           0
     43286 WT3      4847     TIP3     H1       HT       0.417000        1.0080           0
     43287 WT3      4847     TIP3     H2       HT       0.417000        1.0080           0
     43288 WT3      4849     TIP3     OH2      OT      -0.834000       15.9994           0
     43289 WT3      4849     TIP3     H1       HT       0.417000        1.0080           0
     43290 WT3      4849     TIP3     H2       HT       0.417000        1.0080           0
     43291 WT3      4851     TIP3     OH2      OT      -0.834000       15.9994           0
     43292 WT3      4851     TIP3     H1       HT       0.417000        1.0080           0
     43293 WT3      4851     TIP3     H2       HT       0.417000        1.0080           0
     43294 WT3      4853     TIP3     OH2      OT      -0.834000       15.9994           0
     43295 WT3      4853     TIP3     H1       HT       0.417000        1.0080           0
     43296 WT3      4853     TIP3     H2       HT       0.417000        1.0080           0
     43297 WT3      4855     TIP3     OH2      OT      -0.834000       15.9994           0
     43298 WT3      4855     TIP3     H1       HT       0.417000        1.0080           0
     43299 WT3      4855     TIP3     H2       HT       0.417000        1.0080           0
     43300 WT3      4856     TIP3     OH2      OT      -0.834000       15.9994           0
     43301 WT3      4856     TIP3     H1       HT       0.417000        1.0080           0
     43302 WT3      4856     TIP3     H2       HT       0.417000        1.0080           0
     43303 WT3      4857     TIP3     OH2      OT      -0.834000       15.9994           0
     43304 WT3      4857     TIP3     H1       HT       0.417000        1.0080           0
     43305 WT3      4857     TIP3     H2       HT       0.417000        1.0080           0
     43306 WT3      4858     TIP3     OH2      OT      -0.834000       15.9994           0
     43307 WT3      4858     TIP3     H1       HT       0.417000        1.0080           0
     43308 WT3      4858     TIP3     H2       HT       0.417000        1.0080           0
     43309 WT3      4861     TIP3     OH2      OT      -0.834000       15.9994           0
     43310 WT3      4861     TIP3     H1       HT       0.417000        1.0080           0
     43311 WT3      4861     TIP3     H2       HT       0.417000        1.0080           0
     43312 WT3      4863     TIP3     OH2      OT      -0.834000       15.9994           0
     43313 WT3      4863     TIP3     H1       HT       0.417000        1.0080           0
     43314 WT3      4863     TIP3     H2       HT       0.417000        1.0080           0
     43315 WT3      4864     TIP3     OH2      OT      -0.834000       15.9994           0
     43316 WT3      4864     TIP3     H1       HT       0.417000        1.0080           0
     43317 WT3      4864     TIP3     H2       HT       0.417000        1.0080           0
     43318 WT3      4866     TIP3     OH2      OT      -0.834000       15.9994           0
     43319 WT3      4866     TIP3     H1       HT       0.417000        1.0080           0
     43320 WT3      4866     TIP3     H2       HT       0.417000        1.0080           0
     43321 WT3      4869     TIP3     OH2      OT      -0.834000       15.9994           0
     43322 WT3      4869     TIP3     H1       HT       0.417000        1.0080           0
     43323 WT3      4869     TIP3     H2       HT       0.417000        1.0080           0
     43324 WT3      4870     TIP3     OH2      OT      -0.834000       15.9994           0
     43325 WT3      4870     TIP3     H1       HT       0.417000        1.0080           0
     43326 WT3      4870     TIP3     H2       HT       0.417000        1.0080           0
     43327 WT3      4872     TIP3     OH2      OT      -0.834000       15.9994           0
     43328 WT3      4872     TIP3     H1       HT       0.417000        1.0080           0
     43329 WT3      4872     TIP3     H2       HT       0.417000        1.0080           0
     43330 WT3      4873     TIP3     OH2      OT      -0.834000       15.9994           0
     43331 WT3      4873     TIP3     H1       HT       0.417000        1.0080           0
     43332 WT3      4873     TIP3     H2       HT       0.417000        1.0080           0
     43333 WT3      4874     TIP3     OH2      OT      -0.834000       15.9994           0
     43334 WT3      4874     TIP3     H1       HT       0.417000        1.0080           0
     43335 WT3      4874     TIP3     H2       HT       0.417000        1.0080           0
     43336 WT3      4875     TIP3     OH2      OT      -0.834000       15.9994           0
     43337 WT3      4875     TIP3     H1       HT       0.417000        1.0080           0
     43338 WT3      4875     TIP3     H2       HT       0.417000        1.0080           0
     43339 WT3      4877     TIP3     OH2      OT      -0.834000       15.9994           0
     43340 WT3      4877     TIP3     H1       HT       0.417000        1.0080           0
     43341 WT3      4877     TIP3     H2       HT       0.417000        1.0080           0
     43342 WT3      4880     TIP3     OH2      OT      -0.834000       15.9994           0
     43343 WT3      4880     TIP3     H1       HT       0.417000        1.0080           0
     43344 WT3      4880     TIP3     H2       HT       0.417000        1.0080           0
     43345 WT3      4881     TIP3     OH2      OT      -0.834000       15.9994           0
     43346 WT3      4881     TIP3     H1       HT       0.417000        1.0080           0
     43347 WT3      4881     TIP3     H2       HT       0.417000        1.0080           0
     43348 WT3      4882     TIP3     OH2      OT      -0.834000       15.9994           0
     43349 WT3      4882     TIP3     H1       HT       0.417000        1.0080           0
     43350 WT3      4882     TIP3     H2       HT       0.417000        1.0080           0
     43351 WT3      4884     TIP3     OH2      OT      -0.834000       15.9994           0
     43352 WT3      4884     TIP3     H1       HT       0.417000        1.0080           0
     43353 WT3      4884     TIP3     H2       HT       0.417000        1.0080           0
     43354 WT3      4887     TIP3     OH2      OT      -0.834000       15.9994           0
     43355 WT3      4887     TIP3     H1       HT       0.417000        1.0080           0
     43356 WT3      4887     TIP3     H2       HT       0.417000        1.0080           0
     43357 WT3      4888     TIP3     OH2      OT      -0.834000       15.9994           0
     43358 WT3      4888     TIP3     H1       HT       0.417000        1.0080           0
     43359 WT3      4888     TIP3     H2       HT       0.417000        1.0080           0
     43360 WT3      4891     TIP3     OH2      OT      -0.834000       15.9994           0
     43361 WT3      4891     TIP3     H1       HT       0.417000        1.0080           0
     43362 WT3      4891     TIP3     H2       HT       0.417000        1.0080           0
     43363 WT3      4893     TIP3     OH2      OT      -0.834000       15.9994           0
     43364 WT3      4893     TIP3     H1       HT       0.417000        1.0080           0
     43365 WT3      4893     TIP3     H2       HT       0.417000        1.0080           0
     43366 WT3      4894     TIP3     OH2      OT      -0.834000       15.9994           0
     43367 WT3      4894     TIP3     H1       HT       0.417000        1.0080           0
     43368 WT3      4894     TIP3     H2       HT       0.417000        1.0080           0
     43369 WT3      4895     TIP3     OH2      OT      -0.834000       15.9994           0
     43370 WT3      4895     TIP3     H1       HT       0.417000        1.0080           0
     43371 WT3      4895     TIP3     H2       HT       0.417000        1.0080           0
     43372 WT3      4896     TIP3     OH2      OT      -0.834000       15.9994           0
     43373 WT3      4896     TIP3     H1       HT       0.417000        1.0080           0
     43374 WT3      4896     TIP3     H2       HT       0.417000        1.0080           0
     43375 WT3      4897     TIP3     OH2      OT      -0.834000       15.9994           0
     43376 WT3      4897     TIP3     H1       HT       0.417000        1.0080           0
     43377 WT3      4897     TIP3     H2       HT       0.417000        1.0080           0
     43378 WT3      4898     TIP3     OH2      OT      -0.834000       15.9994           0
     43379 WT3      4898     TIP3     H1       HT       0.417000        1.0080           0
     43380 WT3      4898     TIP3     H2       HT       0.417000        1.0080           0
     43381 WT3      4899     TIP3     OH2      OT      -0.834000       15.9994           0
     43382 WT3      4899     TIP3     H1       HT       0.417000        1.0080           0
     43383 WT3      4899     TIP3     H2       HT       0.417000        1.0080           0
     43384 WT3      4901     TIP3     OH2      OT      -0.834000       15.9994           0
     43385 WT3      4901     TIP3     H1       HT       0.417000        1.0080           0
     43386 WT3      4901     TIP3     H2       HT       0.417000        1.0080           0
     43387 WT3      4902     TIP3     OH2      OT      -0.834000       15.9994           0
     43388 WT3      4902     TIP3     H1       HT       0.417000        1.0080           0
     43389 WT3      4902     TIP3     H2       HT       0.417000        1.0080           0
     43390 WT3      4903     TIP3     OH2      OT      -0.834000       15.9994           0
     43391 WT3      4903     TIP3     H1       HT       0.417000        1.0080           0
     43392 WT3      4903     TIP3     H2       HT       0.417000        1.0080           0
     43393 WT3      4905     TIP3     OH2      OT      -0.834000       15.9994           0
     43394 WT3      4905     TIP3     H1       HT       0.417000        1.0080           0
     43395 WT3      4905     TIP3     H2       HT       0.417000        1.0080           0
     43396 WT3      4906     TIP3     OH2      OT      -0.834000       15.9994           0
     43397 WT3      4906     TIP3     H1       HT       0.417000        1.0080           0
     43398 WT3      4906     TIP3     H2       HT       0.417000        1.0080           0
     43399 WT3      4908     TIP3     OH2      OT      -0.834000       15.9994           0
     43400 WT3      4908     TIP3     H1       HT       0.417000        1.0080           0
     43401 WT3      4908     TIP3     H2       HT       0.417000        1.0080           0
     43402 WT3      4909     TIP3     OH2      OT      -0.834000       15.9994           0
     43403 WT3      4909     TIP3     H1       HT       0.417000        1.0080           0
     43404 WT3      4909     TIP3     H2       HT       0.417000        1.0080           0
     43405 WT3      4910     TIP3     OH2      OT      -0.834000       15.9994           0
     43406 WT3      4910     TIP3     H1       HT       0.417000        1.0080           0
     43407 WT3      4910     TIP3     H2       HT       0.417000        1.0080           0
     43408 WT3      4911     TIP3     OH2      OT      -0.834000       15.9994           0
     43409 WT3      4911     TIP3     H1       HT       0.417000        1.0080           0
     43410 WT3      4911     TIP3     H2       HT       0.417000        1.0080           0
     43411 WT3      4912     TIP3     OH2      OT      -0.834000       15.9994           0
     43412 WT3      4912     TIP3     H1       HT       0.417000        1.0080           0
     43413 WT3      4912     TIP3     H2       HT       0.417000        1.0080           0
     43414 WT3      4913     TIP3     OH2      OT      -0.834000       15.9994           0
     43415 WT3      4913     TIP3     H1       HT       0.417000        1.0080           0
     43416 WT3      4913     TIP3     H2       HT       0.417000        1.0080           0
     43417 WT3      4914     TIP3     OH2      OT      -0.834000       15.9994           0
     43418 WT3      4914     TIP3     H1       HT       0.417000        1.0080           0
     43419 WT3      4914     TIP3     H2       HT       0.417000        1.0080           0
     43420 WT3      4915     TIP3     OH2      OT      -0.834000       15.9994           0
     43421 WT3      4915     TIP3     H1       HT       0.417000        1.0080           0
     43422 WT3      4915     TIP3     H2       HT       0.417000        1.0080           0
     43423 WT3      4916     TIP3     OH2      OT      -0.834000       15.9994           0
     43424 WT3      4916     TIP3     H1       HT       0.417000        1.0080           0
     43425 WT3      4916     TIP3     H2       HT       0.417000        1.0080           0
     43426 WT3      4917     TIP3     OH2      OT      -0.834000       15.9994           0
     43427 WT3      4917     TIP3     H1       HT       0.417000        1.0080           0
     43428 WT3      4917     TIP3     H2       HT       0.417000        1.0080           0
     43429 WT3      4919     TIP3     OH2      OT      -0.834000       15.9994           0
     43430 WT3      4919     TIP3     H1       HT       0.417000        1.0080           0
     43431 WT3      4919     TIP3     H2       HT       0.417000        1.0080           0
     43432 WT3      4922     TIP3     OH2      OT      -0.834000       15.9994           0
     43433 WT3      4922     TIP3     H1       HT       0.417000        1.0080           0
     43434 WT3      4922     TIP3     H2       HT       0.417000        1.0080           0
     43435 WT3      4924     TIP3     OH2      OT      -0.834000       15.9994           0
     43436 WT3      4924     TIP3     H1       HT       0.417000        1.0080           0
     43437 WT3      4924     TIP3     H2       HT       0.417000        1.0080           0
     43438 WT3      4925     TIP3     OH2      OT      -0.834000       15.9994           0
     43439 WT3      4925     TIP3     H1       HT       0.417000        1.0080           0
     43440 WT3      4925     TIP3     H2       HT       0.417000        1.0080           0
     43441 WT3      4926     TIP3     OH2      OT      -0.834000       15.9994           0
     43442 WT3      4926     TIP3     H1       HT       0.417000        1.0080           0
     43443 WT3      4926     TIP3     H2       HT       0.417000        1.0080           0
     43444 WT3      4927     TIP3     OH2      OT      -0.834000       15.9994           0
     43445 WT3      4927     TIP3     H1       HT       0.417000        1.0080           0
     43446 WT3      4927     TIP3     H2       HT       0.417000        1.0080           0
     43447 WT3      4928     TIP3     OH2      OT      -0.834000       15.9994           0
     43448 WT3      4928     TIP3     H1       HT       0.417000        1.0080           0
     43449 WT3      4928     TIP3     H2       HT       0.417000        1.0080           0
     43450 WT3      4929     TIP3     OH2      OT      -0.834000       15.9994           0
     43451 WT3      4929     TIP3     H1       HT       0.417000        1.0080           0
     43452 WT3      4929     TIP3     H2       HT       0.417000        1.0080           0
     43453 WT3      4931     TIP3     OH2      OT      -0.834000       15.9994           0
     43454 WT3      4931     TIP3     H1       HT       0.417000        1.0080           0
     43455 WT3      4931     TIP3     H2       HT       0.417000        1.0080           0
     43456 WT3      4932     TIP3     OH2      OT      -0.834000       15.9994           0
     43457 WT3      4932     TIP3     H1       HT       0.417000        1.0080           0
     43458 WT3      4932     TIP3     H2       HT       0.417000        1.0080           0
     43459 WT3      4933     TIP3     OH2      OT      -0.834000       15.9994           0
     43460 WT3      4933     TIP3     H1       HT       0.417000        1.0080           0
     43461 WT3      4933     TIP3     H2       HT       0.417000        1.0080           0
     43462 WT3      4934     TIP3     OH2      OT      -0.834000       15.9994           0
     43463 WT3      4934     TIP3     H1       HT       0.417000        1.0080           0
     43464 WT3      4934     TIP3     H2       HT       0.417000        1.0080           0
     43465 WT3      4935     TIP3     OH2      OT      -0.834000       15.9994           0
     43466 WT3      4935     TIP3     H1       HT       0.417000        1.0080           0
     43467 WT3      4935     TIP3     H2       HT       0.417000        1.0080           0
     43468 WT3      4936     TIP3     OH2      OT      -0.834000       15.9994           0
     43469 WT3      4936     TIP3     H1       HT       0.417000        1.0080           0
     43470 WT3      4936     TIP3     H2       HT       0.417000        1.0080           0
     43471 WT3      4937     TIP3     OH2      OT      -0.834000       15.9994           0
     43472 WT3      4937     TIP3     H1       HT       0.417000        1.0080           0
     43473 WT3      4937     TIP3     H2       HT       0.417000        1.0080           0
     43474 WT3      4938     TIP3     OH2      OT      -0.834000       15.9994           0
     43475 WT3      4938     TIP3     H1       HT       0.417000        1.0080           0
     43476 WT3      4938     TIP3     H2       HT       0.417000        1.0080           0
     43477 WT3      4939     TIP3     OH2      OT      -0.834000       15.9994           0
     43478 WT3      4939     TIP3     H1       HT       0.417000        1.0080           0
     43479 WT3      4939     TIP3     H2       HT       0.417000        1.0080           0
     43480 WT3      4941     TIP3     OH2      OT      -0.834000       15.9994           0
     43481 WT3      4941     TIP3     H1       HT       0.417000        1.0080           0
     43482 WT3      4941     TIP3     H2       HT       0.417000        1.0080           0
     43483 WT3      4942     TIP3     OH2      OT      -0.834000       15.9994           0
     43484 WT3      4942     TIP3     H1       HT       0.417000        1.0080           0
     43485 WT3      4942     TIP3     H2       HT       0.417000        1.0080           0
     43486 WT3      4943     TIP3     OH2      OT      -0.834000       15.9994           0
     43487 WT3      4943     TIP3     H1       HT       0.417000        1.0080           0
     43488 WT3      4943     TIP3     H2       HT       0.417000        1.0080           0
     43489 WT3      4944     TIP3     OH2      OT      -0.834000       15.9994           0
     43490 WT3      4944     TIP3     H1       HT       0.417000        1.0080           0
     43491 WT3      4944     TIP3     H2       HT       0.417000        1.0080           0
     43492 WT3      4945     TIP3     OH2      OT      -0.834000       15.9994           0
     43493 WT3      4945     TIP3     H1       HT       0.417000        1.0080           0
     43494 WT3      4945     TIP3     H2       HT       0.417000        1.0080           0
     43495 WT3      4947     TIP3     OH2      OT      -0.834000       15.9994           0
     43496 WT3      4947     TIP3     H1       HT       0.417000        1.0080           0
     43497 WT3      4947     TIP3     H2       HT       0.417000        1.0080           0
     43498 WT3      4948     TIP3     OH2      OT      -0.834000       15.9994           0
     43499 WT3      4948     TIP3     H1       HT       0.417000        1.0080           0
     43500 WT3      4948     TIP3     H2       HT       0.417000        1.0080           0
     43501 WT3      4949     TIP3     OH2      OT      -0.834000       15.9994           0
     43502 WT3      4949     TIP3     H1       HT       0.417000        1.0080           0
     43503 WT3      4949     TIP3     H2       HT       0.417000        1.0080           0
     43504 WT3      4950     TIP3     OH2      OT      -0.834000       15.9994           0
     43505 WT3      4950     TIP3     H1       HT       0.417000        1.0080           0
     43506 WT3      4950     TIP3     H2       HT       0.417000        1.0080           0
     43507 WT3      4951     TIP3     OH2      OT      -0.834000       15.9994           0
     43508 WT3      4951     TIP3     H1       HT       0.417000        1.0080           0
     43509 WT3      4951     TIP3     H2       HT       0.417000        1.0080           0
     43510 WT3      4952     TIP3     OH2      OT      -0.834000       15.9994           0
     43511 WT3      4952     TIP3     H1       HT       0.417000        1.0080           0
     43512 WT3      4952     TIP3     H2       HT       0.417000        1.0080           0
     43513 WT3      4953     TIP3     OH2      OT      -0.834000       15.9994           0
     43514 WT3      4953     TIP3     H1       HT       0.417000        1.0080           0
     43515 WT3      4953     TIP3     H2       HT       0.417000        1.0080           0
     43516 WT3      4954     TIP3     OH2      OT      -0.834000       15.9994           0
     43517 WT3      4954     TIP3     H1       HT       0.417000        1.0080           0
     43518 WT3      4954     TIP3     H2       HT       0.417000        1.0080           0
     43519 WT3      4955     TIP3     OH2      OT      -0.834000       15.9994           0
     43520 WT3      4955     TIP3     H1       HT       0.417000        1.0080           0
     43521 WT3      4955     TIP3     H2       HT       0.417000        1.0080           0
     43522 WT3      4956     TIP3     OH2      OT      -0.834000       15.9994           0
     43523 WT3      4956     TIP3     H1       HT       0.417000        1.0080           0
     43524 WT3      4956     TIP3     H2       HT       0.417000        1.0080           0
     43525 WT3      4957     TIP3     OH2      OT      -0.834000       15.9994           0
     43526 WT3      4957     TIP3     H1       HT       0.417000        1.0080           0
     43527 WT3      4957     TIP3     H2       HT       0.417000        1.0080           0
     43528 WT3      4958     TIP3     OH2      OT      -0.834000       15.9994           0
     43529 WT3      4958     TIP3     H1       HT       0.417000        1.0080           0
     43530 WT3      4958     TIP3     H2       HT       0.417000        1.0080           0
     43531 WT3      4959     TIP3     OH2      OT      -0.834000       15.9994           0
     43532 WT3      4959     TIP3     H1       HT       0.417000        1.0080           0
     43533 WT3      4959     TIP3     H2       HT       0.417000        1.0080           0
     43534 WT3      4960     TIP3     OH2      OT      -0.834000       15.9994           0
     43535 WT3      4960     TIP3     H1       HT       0.417000        1.0080           0
     43536 WT3      4960     TIP3     H2       HT       0.417000        1.0080           0
     43537 WT3      4961     TIP3     OH2      OT      -0.834000       15.9994           0
     43538 WT3      4961     TIP3     H1       HT       0.417000        1.0080           0
     43539 WT3      4961     TIP3     H2       HT       0.417000        1.0080           0
     43540 WT3      4963     TIP3     OH2      OT      -0.834000       15.9994           0
     43541 WT3      4963     TIP3     H1       HT       0.417000        1.0080           0
     43542 WT3      4963     TIP3     H2       HT       0.417000        1.0080           0
     43543 WT3      4964     TIP3     OH2      OT      -0.834000       15.9994           0
     43544 WT3      4964     TIP3     H1       HT       0.417000        1.0080           0
     43545 WT3      4964     TIP3     H2       HT       0.417000        1.0080           0
     43546 WT3      4965     TIP3     OH2      OT      -0.834000       15.9994           0
     43547 WT3      4965     TIP3     H1       HT       0.417000        1.0080           0
     43548 WT3      4965     TIP3     H2       HT       0.417000        1.0080           0
     43549 WT3      4966     TIP3     OH2      OT      -0.834000       15.9994           0
     43550 WT3      4966     TIP3     H1       HT       0.417000        1.0080           0
     43551 WT3      4966     TIP3     H2       HT       0.417000        1.0080           0
     43552 WT3      4967     TIP3     OH2      OT      -0.834000       15.9994           0
     43553 WT3      4967     TIP3     H1       HT       0.417000        1.0080           0
     43554 WT3      4967     TIP3     H2       HT       0.417000        1.0080           0
     43555 WT3      4968     TIP3     OH2      OT      -0.834000       15.9994           0
     43556 WT3      4968     TIP3     H1       HT       0.417000        1.0080           0
     43557 WT3      4968     TIP3     H2       HT       0.417000        1.0080           0
     43558 WT3      4970     TIP3     OH2      OT      -0.834000       15.9994           0
     43559 WT3      4970     TIP3     H1       HT       0.417000        1.0080           0
     43560 WT3      4970     TIP3     H2       HT       0.417000        1.0080           0
     43561 WT3      4971     TIP3     OH2      OT      -0.834000       15.9994           0
     43562 WT3      4971     TIP3     H1       HT       0.417000        1.0080           0
     43563 WT3      4971     TIP3     H2       HT       0.417000        1.0080           0
     43564 WT3      4973     TIP3     OH2      OT      -0.834000       15.9994           0
     43565 WT3      4973     TIP3     H1       HT       0.417000        1.0080           0
     43566 WT3      4973     TIP3     H2       HT       0.417000        1.0080           0
     43567 WT3      4976     TIP3     OH2      OT      -0.834000       15.9994           0
     43568 WT3      4976     TIP3     H1       HT       0.417000        1.0080           0
     43569 WT3      4976     TIP3     H2       HT       0.417000        1.0080           0
     43570 WT3      4978     TIP3     OH2      OT      -0.834000       15.9994           0
     43571 WT3      4978     TIP3     H1       HT       0.417000        1.0080           0
     43572 WT3      4978     TIP3     H2       HT       0.417000        1.0080           0
     43573 WT3      4980     TIP3     OH2      OT      -0.834000       15.9994           0
     43574 WT3      4980     TIP3     H1       HT       0.417000        1.0080           0
     43575 WT3      4980     TIP3     H2       HT       0.417000        1.0080           0
     43576 WT3      4981     TIP3     OH2      OT      -0.834000       15.9994           0
     43577 WT3      4981     TIP3     H1       HT       0.417000        1.0080           0
     43578 WT3      4981     TIP3     H2       HT       0.417000        1.0080           0
     43579 WT3      4983     TIP3     OH2      OT      -0.834000       15.9994           0
     43580 WT3      4983     TIP3     H1       HT       0.417000        1.0080           0
     43581 WT3      4983     TIP3     H2       HT       0.417000        1.0080           0
     43582 WT3      4985     TIP3     OH2      OT      -0.834000       15.9994           0
     43583 WT3      4985     TIP3     H1       HT       0.417000        1.0080           0
     43584 WT3      4985     TIP3     H2       HT       0.417000        1.0080           0
     43585 WT3      4986     TIP3     OH2      OT      -0.834000       15.9994           0
     43586 WT3      4986     TIP3     H1       HT       0.417000        1.0080           0
     43587 WT3      4986     TIP3     H2       HT       0.417000        1.0080           0
     43588 WT3      4988     TIP3     OH2      OT      -0.834000       15.9994           0
     43589 WT3      4988     TIP3     H1       HT       0.417000        1.0080           0
     43590 WT3      4988     TIP3     H2       HT       0.417000        1.0080           0
     43591 WT3      4991     TIP3     OH2      OT      -0.834000       15.9994           0
     43592 WT3      4991     TIP3     H1       HT       0.417000        1.0080           0
     43593 WT3      4991     TIP3     H2       HT       0.417000        1.0080           0
     43594 WT3      4992     TIP3     OH2      OT      -0.834000       15.9994           0
     43595 WT3      4992     TIP3     H1       HT       0.417000        1.0080           0
     43596 WT3      4992     TIP3     H2       HT       0.417000        1.0080           0
     43597 WT3      4993     TIP3     OH2      OT      -0.834000       15.9994           0
     43598 WT3      4993     TIP3     H1       HT       0.417000        1.0080           0
     43599 WT3      4993     TIP3     H2       HT       0.417000        1.0080           0
     43600 WT3      4994     TIP3     OH2      OT      -0.834000       15.9994           0
     43601 WT3      4994     TIP3     H1       HT       0.417000        1.0080           0
     43602 WT3      4994     TIP3     H2       HT       0.417000        1.0080           0
     43603 WT3      4995     TIP3     OH2      OT      -0.834000       15.9994           0
     43604 WT3      4995     TIP3     H1       HT       0.417000        1.0080           0
     43605 WT3      4995     TIP3     H2       HT       0.417000        1.0080           0
     43606 WT3      4996     TIP3     OH2      OT      -0.834000       15.9994           0
     43607 WT3      4996     TIP3     H1       HT       0.417000        1.0080           0
     43608 WT3      4996     TIP3     H2       HT       0.417000        1.0080           0
     43609 WT3      4997     TIP3     OH2      OT      -0.834000       15.9994           0
     43610 WT3      4997     TIP3     H1       HT       0.417000        1.0080           0
     43611 WT3      4997     TIP3     H2       HT       0.417000        1.0080           0
     43612 WT3      5001     TIP3     OH2      OT      -0.834000       15.9994           0
     43613 WT3      5001     TIP3     H1       HT       0.417000        1.0080           0
     43614 WT3      5001     TIP3     H2       HT       0.417000        1.0080           0
     43615 WT3      5002     TIP3     OH2      OT      -0.834000       15.9994           0
     43616 WT3      5002     TIP3     H1       HT       0.417000        1.0080           0
     43617 WT3      5002     TIP3     H2       HT       0.417000        1.0080           0
     43618 WT3      5003     TIP3     OH2      OT      -0.834000       15.9994           0
     43619 WT3      5003     TIP3     H1       HT       0.417000        1.0080           0
     43620 WT3      5003     TIP3     H2       HT       0.417000        1.0080           0
     43621 WT3      5005     TIP3     OH2      OT      -0.834000       15.9994           0
     43622 WT3      5005     TIP3     H1       HT       0.417000        1.0080           0
     43623 WT3      5005     TIP3     H2       HT       0.417000        1.0080           0
     43624 WT3      5006     TIP3     OH2      OT      -0.834000       15.9994           0
     43625 WT3      5006     TIP3     H1       HT       0.417000        1.0080           0
     43626 WT3      5006     TIP3     H2       HT       0.417000        1.0080           0
     43627 WT3      5007     TIP3     OH2      OT      -0.834000       15.9994           0
     43628 WT3      5007     TIP3     H1       HT       0.417000        1.0080           0
     43629 WT3      5007     TIP3     H2       HT       0.417000        1.0080           0
     43630 WT3      5008     TIP3     OH2      OT      -0.834000       15.9994           0
     43631 WT3      5008     TIP3     H1       HT       0.417000        1.0080           0
     43632 WT3      5008     TIP3     H2       HT       0.417000        1.0080           0
     43633 WT3      5009     TIP3     OH2      OT      -0.834000       15.9994           0
     43634 WT3      5009     TIP3     H1       HT       0.417000        1.0080           0
     43635 WT3      5009     TIP3     H2       HT       0.417000        1.0080           0
     43636 WT3      5010     TIP3     OH2      OT      -0.834000       15.9994           0
     43637 WT3      5010     TIP3     H1       HT       0.417000        1.0080           0
     43638 WT3      5010     TIP3     H2       HT       0.417000        1.0080           0
     43639 WT3      5013     TIP3     OH2      OT      -0.834000       15.9994           0
     43640 WT3      5013     TIP3     H1       HT       0.417000        1.0080           0
     43641 WT3      5013     TIP3     H2       HT       0.417000        1.0080           0
     43642 WT3      5015     TIP3     OH2      OT      -0.834000       15.9994           0
     43643 WT3      5015     TIP3     H1       HT       0.417000        1.0080           0
     43644 WT3      5015     TIP3     H2       HT       0.417000        1.0080           0
     43645 WT3      5016     TIP3     OH2      OT      -0.834000       15.9994           0
     43646 WT3      5016     TIP3     H1       HT       0.417000        1.0080           0
     43647 WT3      5016     TIP3     H2       HT       0.417000        1.0080           0
     43648 WT3      5017     TIP3     OH2      OT      -0.834000       15.9994           0
     43649 WT3      5017     TIP3     H1       HT       0.417000        1.0080           0
     43650 WT3      5017     TIP3     H2       HT       0.417000        1.0080           0
     43651 WT3      5019     TIP3     OH2      OT      -0.834000       15.9994           0
     43652 WT3      5019     TIP3     H1       HT       0.417000        1.0080           0
     43653 WT3      5019     TIP3     H2       HT       0.417000        1.0080           0
     43654 WT3      5034     TIP3     OH2      OT      -0.834000       15.9994           0
     43655 WT3      5034     TIP3     H1       HT       0.417000        1.0080           0
     43656 WT3      5034     TIP3     H2       HT       0.417000        1.0080           0
     43657 WT3      5039     TIP3     OH2      OT      -0.834000       15.9994           0
     43658 WT3      5039     TIP3     H1       HT       0.417000        1.0080           0
     43659 WT3      5039     TIP3     H2       HT       0.417000        1.0080           0
     43660 WT3      5041     TIP3     OH2      OT      -0.834000       15.9994           0
     43661 WT3      5041     TIP3     H1       HT       0.417000        1.0080           0
     43662 WT3      5041     TIP3     H2       HT       0.417000        1.0080           0
     43663 WT3      5047     TIP3     OH2      OT      -0.834000       15.9994           0
     43664 WT3      5047     TIP3     H1       HT       0.417000        1.0080           0
     43665 WT3      5047     TIP3     H2       HT       0.417000        1.0080           0
     43666 WT3      5048     TIP3     OH2      OT      -0.834000       15.9994           0
     43667 WT3      5048     TIP3     H1       HT       0.417000        1.0080           0
     43668 WT3      5048     TIP3     H2       HT       0.417000        1.0080           0
     43669 WT3      5052     TIP3     OH2      OT      -0.834000       15.9994           0
     43670 WT3      5052     TIP3     H1       HT       0.417000        1.0080           0
     43671 WT3      5052     TIP3     H2       HT       0.417000        1.0080           0
     43672 WT3      5056     TIP3     OH2      OT      -0.834000       15.9994           0
     43673 WT3      5056     TIP3     H1       HT       0.417000        1.0080           0
     43674 WT3      5056     TIP3     H2       HT       0.417000        1.0080           0
     43675 WT3      5059     TIP3     OH2      OT      -0.834000       15.9994           0
     43676 WT3      5059     TIP3     H1       HT       0.417000        1.0080           0
     43677 WT3      5059     TIP3     H2       HT       0.417000        1.0080           0
     43678 WT3      5061     TIP3     OH2      OT      -0.834000       15.9994           0
     43679 WT3      5061     TIP3     H1       HT       0.417000        1.0080           0
     43680 WT3      5061     TIP3     H2       HT       0.417000        1.0080           0
     43681 WT3      5077     TIP3     OH2      OT      -0.834000       15.9994           0
     43682 WT3      5077     TIP3     H1       HT       0.417000        1.0080           0
     43683 WT3      5077     TIP3     H2       HT       0.417000        1.0080           0
     43684 WT3      5084     TIP3     OH2      OT      -0.834000       15.9994           0
     43685 WT3      5084     TIP3     H1       HT       0.417000        1.0080           0
     43686 WT3      5084     TIP3     H2       HT       0.417000        1.0080           0
     43687 WT3      5085     TIP3     OH2      OT      -0.834000       15.9994           0
     43688 WT3      5085     TIP3     H1       HT       0.417000        1.0080           0
     43689 WT3      5085     TIP3     H2       HT       0.417000        1.0080           0
     43690 WT3      5098     TIP3     OH2      OT      -0.834000       15.9994           0
     43691 WT3      5098     TIP3     H1       HT       0.417000        1.0080           0
     43692 WT3      5098     TIP3     H2       HT       0.417000        1.0080           0
     43693 WT3      5105     TIP3     OH2      OT      -0.834000       15.9994           0
     43694 WT3      5105     TIP3     H1       HT       0.417000        1.0080           0
     43695 WT3      5105     TIP3     H2       HT       0.417000        1.0080           0
     43696 WT3      5193     TIP3     OH2      OT      -0.834000       15.9994           0
     43697 WT3      5193     TIP3     H1       HT       0.417000        1.0080           0
     43698 WT3      5193     TIP3     H2       HT       0.417000        1.0080           0
     43699 WT3      5234     TIP3     OH2      OT      -0.834000       15.9994           0
     43700 WT3      5234     TIP3     H1       HT       0.417000        1.0080           0
     43701 WT3      5234     TIP3     H2       HT       0.417000        1.0080           0
     43702 WT3      5251     TIP3     OH2      OT      -0.834000       15.9994           0
     43703 WT3      5251     TIP3     H1       HT       0.417000        1.0080           0
     43704 WT3      5251     TIP3     H2       HT       0.417000        1.0080           0
     43705 WT3      5252     TIP3     OH2      OT      -0.834000       15.9994           0
     43706 WT3      5252     TIP3     H1       HT       0.417000        1.0080           0
     43707 WT3      5252     TIP3     H2       HT       0.417000        1.0080           0
     43708 WT3      5259     TIP3     OH2      OT      -0.834000       15.9994           0
     43709 WT3      5259     TIP3     H1       HT       0.417000        1.0080           0
     43710 WT3      5259     TIP3     H2       HT       0.417000        1.0080           0
     43711 WT3      5260     TIP3     OH2      OT      -0.834000       15.9994           0
     43712 WT3      5260     TIP3     H1       HT       0.417000        1.0080           0
     43713 WT3      5260     TIP3     H2       HT       0.417000        1.0080           0
     43714 WT3      5264     TIP3     OH2      OT      -0.834000       15.9994           0
     43715 WT3      5264     TIP3     H1       HT       0.417000        1.0080           0
     43716 WT3      5264     TIP3     H2       HT       0.417000        1.0080           0
     43717 WT3      5266     TIP3     OH2      OT      -0.834000       15.9994           0
     43718 WT3      5266     TIP3     H1       HT       0.417000        1.0080           0
     43719 WT3      5266     TIP3     H2       HT       0.417000        1.0080           0
     43720 WT3      5267     TIP3     OH2      OT      -0.834000       15.9994           0
     43721 WT3      5267     TIP3     H1       HT       0.417000        1.0080           0
     43722 WT3      5267     TIP3     H2       HT       0.417000        1.0080           0
     43723 WT3      5271     TIP3     OH2      OT      -0.834000       15.9994           0
     43724 WT3      5271     TIP3     H1       HT       0.417000        1.0080           0
     43725 WT3      5271     TIP3     H2       HT       0.417000        1.0080           0
     43726 WT3      5272     TIP3     OH2      OT      -0.834000       15.9994           0
     43727 WT3      5272     TIP3     H1       HT       0.417000        1.0080           0
     43728 WT3      5272     TIP3     H2       HT       0.417000        1.0080           0
     43729 WT3      5273     TIP3     OH2      OT      -0.834000       15.9994           0
     43730 WT3      5273     TIP3     H1       HT       0.417000        1.0080           0
     43731 WT3      5273     TIP3     H2       HT       0.417000        1.0080           0
     43732 WT3      5284     TIP3     OH2      OT      -0.834000       15.9994           0
     43733 WT3      5284     TIP3     H1       HT       0.417000        1.0080           0
     43734 WT3      5284     TIP3     H2       HT       0.417000        1.0080           0
     43735 WT3      5286     TIP3     OH2      OT      -0.834000       15.9994           0
     43736 WT3      5286     TIP3     H1       HT       0.417000        1.0080           0
     43737 WT3      5286     TIP3     H2       HT       0.417000        1.0080           0
     43738 WT3      5288     TIP3     OH2      OT      -0.834000       15.9994           0
     43739 WT3      5288     TIP3     H1       HT       0.417000        1.0080           0
     43740 WT3      5288     TIP3     H2       HT       0.417000        1.0080           0
     43741 WT3      5289     TIP3     OH2      OT      -0.834000       15.9994           0
     43742 WT3      5289     TIP3     H1       HT       0.417000        1.0080           0
     43743 WT3      5289     TIP3     H2       HT       0.417000        1.0080           0
     43744 WT3      5296     TIP3     OH2      OT      -0.834000       15.9994           0
     43745 WT3      5296     TIP3     H1       HT       0.417000        1.0080           0
     43746 WT3      5296     TIP3     H2       HT       0.417000        1.0080           0
     43747 WT3      5298     TIP3     OH2      OT      -0.834000       15.9994           0
     43748 WT3      5298     TIP3     H1       HT       0.417000        1.0080           0
     43749 WT3      5298     TIP3     H2       HT       0.417000        1.0080           0
     43750 WT3      5302     TIP3     OH2      OT      -0.834000       15.9994           0
     43751 WT3      5302     TIP3     H1       HT       0.417000        1.0080           0
     43752 WT3      5302     TIP3     H2       HT       0.417000        1.0080           0
     43753 WT3      5304     TIP3     OH2      OT      -0.834000       15.9994           0
     43754 WT3      5304     TIP3     H1       HT       0.417000        1.0080           0
     43755 WT3      5304     TIP3     H2       HT       0.417000        1.0080           0
     43756 WT3      5306     TIP3     OH2      OT      -0.834000       15.9994           0
     43757 WT3      5306     TIP3     H1       HT       0.417000        1.0080           0
     43758 WT3      5306     TIP3     H2       HT       0.417000        1.0080           0
     43759 WT3      5309     TIP3     OH2      OT      -0.834000       15.9994           0
     43760 WT3      5309     TIP3     H1       HT       0.417000        1.0080           0
     43761 WT3      5309     TIP3     H2       HT       0.417000        1.0080           0
     43762 WT3      5314     TIP3     OH2      OT      -0.834000       15.9994           0
     43763 WT3      5314     TIP3     H1       HT       0.417000        1.0080           0
     43764 WT3      5314     TIP3     H2       HT       0.417000        1.0080           0
     43765 WT3      5317     TIP3     OH2      OT      -0.834000       15.9994           0
     43766 WT3      5317     TIP3     H1       HT       0.417000        1.0080           0
     43767 WT3      5317     TIP3     H2       HT       0.417000        1.0080           0
     43768 WT3      5318     TIP3     OH2      OT      -0.834000       15.9994           0
     43769 WT3      5318     TIP3     H1       HT       0.417000        1.0080           0
     43770 WT3      5318     TIP3     H2       HT       0.417000        1.0080           0
     43771 WT3      5319     TIP3     OH2      OT      -0.834000       15.9994           0
     43772 WT3      5319     TIP3     H1       HT       0.417000        1.0080           0
     43773 WT3      5319     TIP3     H2       HT       0.417000        1.0080           0
     43774 WT3      5320     TIP3     OH2      OT      -0.834000       15.9994           0
     43775 WT3      5320     TIP3     H1       HT       0.417000        1.0080           0
     43776 WT3      5320     TIP3     H2       HT       0.417000        1.0080           0
     43777 WT3      5322     TIP3     OH2      OT      -0.834000       15.9994           0
     43778 WT3      5322     TIP3     H1       HT       0.417000        1.0080           0
     43779 WT3      5322     TIP3     H2       HT       0.417000        1.0080           0
     43780 WT3      5323     TIP3     OH2      OT      -0.834000       15.9994           0
     43781 WT3      5323     TIP3     H1       HT       0.417000        1.0080           0
     43782 WT3      5323     TIP3     H2       HT       0.417000        1.0080           0
     43783 WT3      5325     TIP3     OH2      OT      -0.834000       15.9994           0
     43784 WT3      5325     TIP3     H1       HT       0.417000        1.0080           0
     43785 WT3      5325     TIP3     H2       HT       0.417000        1.0080           0
     43786 WT3      5327     TIP3     OH2      OT      -0.834000       15.9994           0
     43787 WT3      5327     TIP3     H1       HT       0.417000        1.0080           0
     43788 WT3      5327     TIP3     H2       HT       0.417000        1.0080           0
     43789 WT3      5328     TIP3     OH2      OT      -0.834000       15.9994           0
     43790 WT3      5328     TIP3     H1       HT       0.417000        1.0080           0
     43791 WT3      5328     TIP3     H2       HT       0.417000        1.0080           0
     43792 WT3      5331     TIP3     OH2      OT      -0.834000       15.9994           0
     43793 WT3      5331     TIP3     H1       HT       0.417000        1.0080           0
     43794 WT3      5331     TIP3     H2       HT       0.417000        1.0080           0
     43795 WT3      5332     TIP3     OH2      OT      -0.834000       15.9994           0
     43796 WT3      5332     TIP3     H1       HT       0.417000        1.0080           0
     43797 WT3      5332     TIP3     H2       HT       0.417000        1.0080           0
     43798 WT3      5333     TIP3     OH2      OT      -0.834000       15.9994           0
     43799 WT3      5333     TIP3     H1       HT       0.417000        1.0080           0
     43800 WT3      5333     TIP3     H2       HT       0.417000        1.0080           0
     43801 WT3      5334     TIP3     OH2      OT      -0.834000       15.9994           0
     43802 WT3      5334     TIP3     H1       HT       0.417000        1.0080           0
     43803 WT3      5334     TIP3     H2       HT       0.417000        1.0080           0
     43804 WT3      5338     TIP3     OH2      OT      -0.834000       15.9994           0
     43805 WT3      5338     TIP3     H1       HT       0.417000        1.0080           0
     43806 WT3      5338     TIP3     H2       HT       0.417000        1.0080           0
     43807 WT3      5341     TIP3     OH2      OT      -0.834000       15.9994           0
     43808 WT3      5341     TIP3     H1       HT       0.417000        1.0080           0
     43809 WT3      5341     TIP3     H2       HT       0.417000        1.0080           0
     43810 WT3      5343     TIP3     OH2      OT      -0.834000       15.9994           0
     43811 WT3      5343     TIP3     H1       HT       0.417000        1.0080           0
     43812 WT3      5343     TIP3     H2       HT       0.417000        1.0080           0
     43813 WT3      5344     TIP3     OH2      OT      -0.834000       15.9994           0
     43814 WT3      5344     TIP3     H1       HT       0.417000        1.0080           0
     43815 WT3      5344     TIP3     H2       HT       0.417000        1.0080           0
     43816 WT3      5348     TIP3     OH2      OT      -0.834000       15.9994           0
     43817 WT3      5348     TIP3     H1       HT       0.417000        1.0080           0
     43818 WT3      5348     TIP3     H2       HT       0.417000        1.0080           0
     43819 WT3      5349     TIP3     OH2      OT      -0.834000       15.9994           0
     43820 WT3      5349     TIP3     H1       HT       0.417000        1.0080           0
     43821 WT3      5349     TIP3     H2       HT       0.417000        1.0080           0
     43822 WT3      5350     TIP3     OH2      OT      -0.834000       15.9994           0
     43823 WT3      5350     TIP3     H1       HT       0.417000        1.0080           0
     43824 WT3      5350     TIP3     H2       HT       0.417000        1.0080           0
     43825 WT3      5351     TIP3     OH2      OT      -0.834000       15.9994           0
     43826 WT3      5351     TIP3     H1       HT       0.417000        1.0080           0
     43827 WT3      5351     TIP3     H2       HT       0.417000        1.0080           0
     43828 WT3      5353     TIP3     OH2      OT      -0.834000       15.9994           0
     43829 WT3      5353     TIP3     H1       HT       0.417000        1.0080           0
     43830 WT3      5353     TIP3     H2       HT       0.417000        1.0080           0
     43831 WT3      5354     TIP3     OH2      OT      -0.834000       15.9994           0
     43832 WT3      5354     TIP3     H1       HT       0.417000        1.0080           0
     43833 WT3      5354     TIP3     H2       HT       0.417000        1.0080           0
     43834 WT3      5355     TIP3     OH2      OT      -0.834000       15.9994           0
     43835 WT3      5355     TIP3     H1       HT       0.417000        1.0080           0
     43836 WT3      5355     TIP3     H2       HT       0.417000        1.0080           0
     43837 WT3      5356     TIP3     OH2      OT      -0.834000       15.9994           0
     43838 WT3      5356     TIP3     H1       HT       0.417000        1.0080           0
     43839 WT3      5356     TIP3     H2       HT       0.417000        1.0080           0
     43840 WT3      5358     TIP3     OH2      OT      -0.834000       15.9994           0
     43841 WT3      5358     TIP3     H1       HT       0.417000        1.0080           0
     43842 WT3      5358     TIP3     H2       HT       0.417000        1.0080           0
     43843 WT3      5359     TIP3     OH2      OT      -0.834000       15.9994           0
     43844 WT3      5359     TIP3     H1       HT       0.417000        1.0080           0
     43845 WT3      5359     TIP3     H2       HT       0.417000        1.0080           0
     43846 WT3      5360     TIP3     OH2      OT      -0.834000       15.9994           0
     43847 WT3      5360     TIP3     H1       HT       0.417000        1.0080           0
     43848 WT3      5360     TIP3     H2       HT       0.417000        1.0080           0
     43849 WT3      5363     TIP3     OH2      OT      -0.834000       15.9994           0
     43850 WT3      5363     TIP3     H1       HT       0.417000        1.0080           0
     43851 WT3      5363     TIP3     H2       HT       0.417000        1.0080           0
     43852 WT3      5364     TIP3     OH2      OT      -0.834000       15.9994           0
     43853 WT3      5364     TIP3     H1       HT       0.417000        1.0080           0
     43854 WT3      5364     TIP3     H2       HT       0.417000        1.0080           0
     43855 WT3      5365     TIP3     OH2      OT      -0.834000       15.9994           0
     43856 WT3      5365     TIP3     H1       HT       0.417000        1.0080           0
     43857 WT3      5365     TIP3     H2       HT       0.417000        1.0080           0
     43858 WT3      5366     TIP3     OH2      OT      -0.834000       15.9994           0
     43859 WT3      5366     TIP3     H1       HT       0.417000        1.0080           0
     43860 WT3      5366     TIP3     H2       HT       0.417000        1.0080           0
     43861 WT3      5368     TIP3     OH2      OT      -0.834000       15.9994           0
     43862 WT3      5368     TIP3     H1       HT       0.417000        1.0080           0
     43863 WT3      5368     TIP3     H2       HT       0.417000        1.0080           0
     43864 WT3      5369     TIP3     OH2      OT      -0.834000       15.9994           0
     43865 WT3      5369     TIP3     H1       HT       0.417000        1.0080           0
     43866 WT3      5369     TIP3     H2       HT       0.417000        1.0080           0
     43867 WT3      5370     TIP3     OH2      OT      -0.834000       15.9994           0
     43868 WT3      5370     TIP3     H1       HT       0.417000        1.0080           0
     43869 WT3      5370     TIP3     H2       HT       0.417000        1.0080           0
     43870 WT3      5371     TIP3     OH2      OT      -0.834000       15.9994           0
     43871 WT3      5371     TIP3     H1       HT       0.417000        1.0080           0
     43872 WT3      5371     TIP3     H2       HT       0.417000        1.0080           0
     43873 WT3      5372     TIP3     OH2      OT      -0.834000       15.9994           0
     43874 WT3      5372     TIP3     H1       HT       0.417000        1.0080           0
     43875 WT3      5372     TIP3     H2       HT       0.417000        1.0080           0
     43876 WT3      5374     TIP3     OH2      OT      -0.834000       15.9994           0
     43877 WT3      5374     TIP3     H1       HT       0.417000        1.0080           0
     43878 WT3      5374     TIP3     H2       HT       0.417000        1.0080           0
     43879 WT3      5375     TIP3     OH2      OT      -0.834000       15.9994           0
     43880 WT3      5375     TIP3     H1       HT       0.417000        1.0080           0
     43881 WT3      5375     TIP3     H2       HT       0.417000        1.0080           0
     43882 WT3      5376     TIP3     OH2      OT      -0.834000       15.9994           0
     43883 WT3      5376     TIP3     H1       HT       0.417000        1.0080           0
     43884 WT3      5376     TIP3     H2       HT       0.417000        1.0080           0
     43885 WT3      5377     TIP3     OH2      OT      -0.834000       15.9994           0
     43886 WT3      5377     TIP3     H1       HT       0.417000        1.0080           0
     43887 WT3      5377     TIP3     H2       HT       0.417000        1.0080           0
     43888 WT3      5378     TIP3     OH2      OT      -0.834000       15.9994           0
     43889 WT3      5378     TIP3     H1       HT       0.417000        1.0080           0
     43890 WT3      5378     TIP3     H2       HT       0.417000        1.0080           0
     43891 WT3      5379     TIP3     OH2      OT      -0.834000       15.9994           0
     43892 WT3      5379     TIP3     H1       HT       0.417000        1.0080           0
     43893 WT3      5379     TIP3     H2       HT       0.417000        1.0080           0
     43894 WT3      5380     TIP3     OH2      OT      -0.834000       15.9994           0
     43895 WT3      5380     TIP3     H1       HT       0.417000        1.0080           0
     43896 WT3      5380     TIP3     H2       HT       0.417000        1.0080           0
     43897 WT3      5382     TIP3     OH2      OT      -0.834000       15.9994           0
     43898 WT3      5382     TIP3     H1       HT       0.417000        1.0080           0
     43899 WT3      5382     TIP3     H2       HT       0.417000        1.0080           0
     43900 WT3      5383     TIP3     OH2      OT      -0.834000       15.9994           0
     43901 WT3      5383     TIP3     H1       HT       0.417000        1.0080           0
     43902 WT3      5383     TIP3     H2       HT       0.417000        1.0080           0
     43903 WT3      5384     TIP3     OH2      OT      -0.834000       15.9994           0
     43904 WT3      5384     TIP3     H1       HT       0.417000        1.0080           0
     43905 WT3      5384     TIP3     H2       HT       0.417000        1.0080           0
     43906 WT3      5385     TIP3     OH2      OT      -0.834000       15.9994           0
     43907 WT3      5385     TIP3     H1       HT       0.417000        1.0080           0
     43908 WT3      5385     TIP3     H2       HT       0.417000        1.0080           0
     43909 WT3      5388     TIP3     OH2      OT      -0.834000       15.9994           0
     43910 WT3      5388     TIP3     H1       HT       0.417000        1.0080           0
     43911 WT3      5388     TIP3     H2       HT       0.417000        1.0080           0
     43912 WT3      5389     TIP3     OH2      OT      -0.834000       15.9994           0
     43913 WT3      5389     TIP3     H1       HT       0.417000        1.0080           0
     43914 WT3      5389     TIP3     H2       HT       0.417000        1.0080           0
     43915 WT3      5390     TIP3     OH2      OT      -0.834000       15.9994           0
     43916 WT3      5390     TIP3     H1       HT       0.417000        1.0080           0
     43917 WT3      5390     TIP3     H2       HT       0.417000        1.0080           0
     43918 WT3      5392     TIP3     OH2      OT      -0.834000       15.9994           0
     43919 WT3      5392     TIP3     H1       HT       0.417000        1.0080           0
     43920 WT3      5392     TIP3     H2       HT       0.417000        1.0080           0
     43921 WT3      5393     TIP3     OH2      OT      -0.834000       15.9994           0
     43922 WT3      5393     TIP3     H1       HT       0.417000        1.0080           0
     43923 WT3      5393     TIP3     H2       HT       0.417000        1.0080           0
     43924 WT3      5394     TIP3     OH2      OT      -0.834000       15.9994           0
     43925 WT3      5394     TIP3     H1       HT       0.417000        1.0080           0
     43926 WT3      5394     TIP3     H2       HT       0.417000        1.0080           0
     43927 WT3      5395     TIP3     OH2      OT      -0.834000       15.9994           0
     43928 WT3      5395     TIP3     H1       HT       0.417000        1.0080           0
     43929 WT3      5395     TIP3     H2       HT       0.417000        1.0080           0
     43930 WT3      5396     TIP3     OH2      OT      -0.834000       15.9994           0
     43931 WT3      5396     TIP3     H1       HT       0.417000        1.0080           0
     43932 WT3      5396     TIP3     H2       HT       0.417000        1.0080           0
     43933 WT3      5397     TIP3     OH2      OT      -0.834000       15.9994           0
     43934 WT3      5397     TIP3     H1       HT       0.417000        1.0080           0
     43935 WT3      5397     TIP3     H2       HT       0.417000        1.0080           0
     43936 WT3      5400     TIP3     OH2      OT      -0.834000       15.9994           0
     43937 WT3      5400     TIP3     H1       HT       0.417000        1.0080           0
     43938 WT3      5400     TIP3     H2       HT       0.417000        1.0080           0
     43939 WT3      5401     TIP3     OH2      OT      -0.834000       15.9994           0
     43940 WT3      5401     TIP3     H1       HT       0.417000        1.0080           0
     43941 WT3      5401     TIP3     H2       HT       0.417000        1.0080           0
     43942 WT3      5402     TIP3     OH2      OT      -0.834000       15.9994           0
     43943 WT3      5402     TIP3     H1       HT       0.417000        1.0080           0
     43944 WT3      5402     TIP3     H2       HT       0.417000        1.0080           0
     43945 WT3      5403     TIP3     OH2      OT      -0.834000       15.9994           0
     43946 WT3      5403     TIP3     H1       HT       0.417000        1.0080           0
     43947 WT3      5403     TIP3     H2       HT       0.417000        1.0080           0
     43948 WT3      5404     TIP3     OH2      OT      -0.834000       15.9994           0
     43949 WT3      5404     TIP3     H1       HT       0.417000        1.0080           0
     43950 WT3      5404     TIP3     H2       HT       0.417000        1.0080           0
     43951 WT3      5406     TIP3     OH2      OT      -0.834000       15.9994           0
     43952 WT3      5406     TIP3     H1       HT       0.417000        1.0080           0
     43953 WT3      5406     TIP3     H2       HT       0.417000        1.0080           0
     43954 WT3      5410     TIP3     OH2      OT      -0.834000       15.9994           0
     43955 WT3      5410     TIP3     H1       HT       0.417000        1.0080           0
     43956 WT3      5410     TIP3     H2       HT       0.417000        1.0080           0
     43957 WT3      5411     TIP3     OH2      OT      -0.834000       15.9994           0
     43958 WT3      5411     TIP3     H1       HT       0.417000        1.0080           0
     43959 WT3      5411     TIP3     H2       HT       0.417000        1.0080           0
     43960 WT3      5412     TIP3     OH2      OT      -0.834000       15.9994           0
     43961 WT3      5412     TIP3     H1       HT       0.417000        1.0080           0
     43962 WT3      5412     TIP3     H2       HT       0.417000        1.0080           0
     43963 WT3      5413     TIP3     OH2      OT      -0.834000       15.9994           0
     43964 WT3      5413     TIP3     H1       HT       0.417000        1.0080           0
     43965 WT3      5413     TIP3     H2       HT       0.417000        1.0080           0
     43966 WT3      5414     TIP3     OH2      OT      -0.834000       15.9994           0
     43967 WT3      5414     TIP3     H1       HT       0.417000        1.0080           0
     43968 WT3      5414     TIP3     H2       HT       0.417000        1.0080           0
     43969 WT3      5415     TIP3     OH2      OT      -0.834000       15.9994           0
     43970 WT3      5415     TIP3     H1       HT       0.417000        1.0080           0
     43971 WT3      5415     TIP3     H2       HT       0.417000        1.0080           0
     43972 WT3      5416     TIP3     OH2      OT      -0.834000       15.9994           0
     43973 WT3      5416     TIP3     H1       HT       0.417000        1.0080           0
     43974 WT3      5416     TIP3     H2       HT       0.417000        1.0080           0
     43975 WT3      5417     TIP3     OH2      OT      -0.834000       15.9994           0
     43976 WT3      5417     TIP3     H1       HT       0.417000        1.0080           0
     43977 WT3      5417     TIP3     H2       HT       0.417000        1.0080           0
     43978 WT3      5424     TIP3     OH2      OT      -0.834000       15.9994           0
     43979 WT3      5424     TIP3     H1       HT       0.417000        1.0080           0
     43980 WT3      5424     TIP3     H2       HT       0.417000        1.0080           0
     43981 WT3      5425     TIP3     OH2      OT      -0.834000       15.9994           0
     43982 WT3      5425     TIP3     H1       HT       0.417000        1.0080           0
     43983 WT3      5425     TIP3     H2       HT       0.417000        1.0080           0
     43984 WT3      5426     TIP3     OH2      OT      -0.834000       15.9994           0
     43985 WT3      5426     TIP3     H1       HT       0.417000        1.0080           0
     43986 WT3      5426     TIP3     H2       HT       0.417000        1.0080           0
     43987 WT3      5427     TIP3     OH2      OT      -0.834000       15.9994           0
     43988 WT3      5427     TIP3     H1       HT       0.417000        1.0080           0
     43989 WT3      5427     TIP3     H2       HT       0.417000        1.0080           0
     43990 WT3      5428     TIP3     OH2      OT      -0.834000       15.9994           0
     43991 WT3      5428     TIP3     H1       HT       0.417000        1.0080           0
     43992 WT3      5428     TIP3     H2       HT       0.417000        1.0080           0
     43993 WT3      5429     TIP3     OH2      OT      -0.834000       15.9994           0
     43994 WT3      5429     TIP3     H1       HT       0.417000        1.0080           0
     43995 WT3      5429     TIP3     H2       HT       0.417000        1.0080           0
     43996 WT3      5430     TIP3     OH2      OT      -0.834000       15.9994           0
     43997 WT3      5430     TIP3     H1       HT       0.417000        1.0080           0
     43998 WT3      5430     TIP3     H2       HT       0.417000        1.0080           0
     43999 WT3      5431     TIP3     OH2      OT      -0.834000       15.9994           0
     44000 WT3      5431     TIP3     H1       HT       0.417000        1.0080           0
     44001 WT3      5431     TIP3     H2       HT       0.417000        1.0080           0
     44002 WT3      5432     TIP3     OH2      OT      -0.834000       15.9994           0
     44003 WT3      5432     TIP3     H1       HT       0.417000        1.0080           0
     44004 WT3      5432     TIP3     H2       HT       0.417000        1.0080           0
     44005 WT3      5434     TIP3     OH2      OT      -0.834000       15.9994           0
     44006 WT3      5434     TIP3     H1       HT       0.417000        1.0080           0
     44007 WT3      5434     TIP3     H2       HT       0.417000        1.0080           0
     44008 WT3      5436     TIP3     OH2      OT      -0.834000       15.9994           0
     44009 WT3      5436     TIP3     H1       HT       0.417000        1.0080           0
     44010 WT3      5436     TIP3     H2       HT       0.417000        1.0080           0
     44011 WT3      5437     TIP3     OH2      OT      -0.834000       15.9994           0
     44012 WT3      5437     TIP3     H1       HT       0.417000        1.0080           0
     44013 WT3      5437     TIP3     H2       HT       0.417000        1.0080           0
     44014 WT3      5438     TIP3     OH2      OT      -0.834000       15.9994           0
     44015 WT3      5438     TIP3     H1       HT       0.417000        1.0080           0
     44016 WT3      5438     TIP3     H2       HT       0.417000        1.0080           0
     44017 WT3      5440     TIP3     OH2      OT      -0.834000       15.9994           0
     44018 WT3      5440     TIP3     H1       HT       0.417000        1.0080           0
     44019 WT3      5440     TIP3     H2       HT       0.417000        1.0080           0
     44020 WT3      5442     TIP3     OH2      OT      -0.834000       15.9994           0
     44021 WT3      5442     TIP3     H1       HT       0.417000        1.0080           0
     44022 WT3      5442     TIP3     H2       HT       0.417000        1.0080           0
     44023 WT3      5443     TIP3     OH2      OT      -0.834000       15.9994           0
     44024 WT3      5443     TIP3     H1       HT       0.417000        1.0080           0
     44025 WT3      5443     TIP3     H2       HT       0.417000        1.0080           0
     44026 WT3      5444     TIP3     OH2      OT      -0.834000       15.9994           0
     44027 WT3      5444     TIP3     H1       HT       0.417000        1.0080           0
     44028 WT3      5444     TIP3     H2       HT       0.417000        1.0080           0
     44029 WT3      5446     TIP3     OH2      OT      -0.834000       15.9994           0
     44030 WT3      5446     TIP3     H1       HT       0.417000        1.0080           0
     44031 WT3      5446     TIP3     H2       HT       0.417000        1.0080           0
     44032 WT3      5447     TIP3     OH2      OT      -0.834000       15.9994           0
     44033 WT3      5447     TIP3     H1       HT       0.417000        1.0080           0
     44034 WT3      5447     TIP3     H2       HT       0.417000        1.0080           0
     44035 WT3      5448     TIP3     OH2      OT      -0.834000       15.9994           0
     44036 WT3      5448     TIP3     H1       HT       0.417000        1.0080           0
     44037 WT3      5448     TIP3     H2       HT       0.417000        1.0080           0
     44038 WT3      5449     TIP3     OH2      OT      -0.834000       15.9994           0
     44039 WT3      5449     TIP3     H1       HT       0.417000        1.0080           0
     44040 WT3      5449     TIP3     H2       HT       0.417000        1.0080           0
     44041 WT3      5451     TIP3     OH2      OT      -0.834000       15.9994           0
     44042 WT3      5451     TIP3     H1       HT       0.417000        1.0080           0
     44043 WT3      5451     TIP3     H2       HT       0.417000        1.0080           0
     44044 WT3      5452     TIP3     OH2      OT      -0.834000       15.9994           0
     44045 WT3      5452     TIP3     H1       HT       0.417000        1.0080           0
     44046 WT3      5452     TIP3     H2       HT       0.417000        1.0080           0
     44047 WT3      5454     TIP3     OH2      OT      -0.834000       15.9994           0
     44048 WT3      5454     TIP3     H1       HT       0.417000        1.0080           0
     44049 WT3      5454     TIP3     H2       HT       0.417000        1.0080           0
     44050 WT3      5458     TIP3     OH2      OT      -0.834000       15.9994           0
     44051 WT3      5458     TIP3     H1       HT       0.417000        1.0080           0
     44052 WT3      5458     TIP3     H2       HT       0.417000        1.0080           0
     44053 WT3      5460     TIP3     OH2      OT      -0.834000       15.9994           0
     44054 WT3      5460     TIP3     H1       HT       0.417000        1.0080           0
     44055 WT3      5460     TIP3     H2       HT       0.417000        1.0080           0
     44056 WT3      5461     TIP3     OH2      OT      -0.834000       15.9994           0
     44057 WT3      5461     TIP3     H1       HT       0.417000        1.0080           0
     44058 WT3      5461     TIP3     H2       HT       0.417000        1.0080           0
     44059 WT3      5466     TIP3     OH2      OT      -0.834000       15.9994           0
     44060 WT3      5466     TIP3     H1       HT       0.417000        1.0080           0
     44061 WT3      5466     TIP3     H2       HT       0.417000        1.0080           0
     44062 WT3      5469     TIP3     OH2      OT      -0.834000       15.9994           0
     44063 WT3      5469     TIP3     H1       HT       0.417000        1.0080           0
     44064 WT3      5469     TIP3     H2       HT       0.417000        1.0080           0
     44065 WT3      5470     TIP3     OH2      OT      -0.834000       15.9994           0
     44066 WT3      5470     TIP3     H1       HT       0.417000        1.0080           0
     44067 WT3      5470     TIP3     H2       HT       0.417000        1.0080           0
     44068 WT3      5472     TIP3     OH2      OT      -0.834000       15.9994           0
     44069 WT3      5472     TIP3     H1       HT       0.417000        1.0080           0
     44070 WT3      5472     TIP3     H2       HT       0.417000        1.0080           0
     44071 WT3      5473     TIP3     OH2      OT      -0.834000       15.9994           0
     44072 WT3      5473     TIP3     H1       HT       0.417000        1.0080           0
     44073 WT3      5473     TIP3     H2       HT       0.417000        1.0080           0
     44074 WT3      5474     TIP3     OH2      OT      -0.834000       15.9994           0
     44075 WT3      5474     TIP3     H1       HT       0.417000        1.0080           0
     44076 WT3      5474     TIP3     H2       HT       0.417000        1.0080           0
     44077 WT3      5476     TIP3     OH2      OT      -0.834000       15.9994           0
     44078 WT3      5476     TIP3     H1       HT       0.417000        1.0080           0
     44079 WT3      5476     TIP3     H2       HT       0.417000        1.0080           0
     44080 WT3      5477     TIP3     OH2      OT      -0.834000       15.9994           0
     44081 WT3      5477     TIP3     H1       HT       0.417000        1.0080           0
     44082 WT3      5477     TIP3     H2       HT       0.417000        1.0080           0
     44083 WT3      5479     TIP3     OH2      OT      -0.834000       15.9994           0
     44084 WT3      5479     TIP3     H1       HT       0.417000        1.0080           0
     44085 WT3      5479     TIP3     H2       HT       0.417000        1.0080           0
     44086 WT3      5480     TIP3     OH2      OT      -0.834000       15.9994           0
     44087 WT3      5480     TIP3     H1       HT       0.417000        1.0080           0
     44088 WT3      5480     TIP3     H2       HT       0.417000        1.0080           0
     44089 WT3      5481     TIP3     OH2      OT      -0.834000       15.9994           0
     44090 WT3      5481     TIP3     H1       HT       0.417000        1.0080           0
     44091 WT3      5481     TIP3     H2       HT       0.417000        1.0080           0
     44092 WT3      5482     TIP3     OH2      OT      -0.834000       15.9994           0
     44093 WT3      5482     TIP3     H1       HT       0.417000        1.0080           0
     44094 WT3      5482     TIP3     H2       HT       0.417000        1.0080           0
     44095 WT3      5484     TIP3     OH2      OT      -0.834000       15.9994           0
     44096 WT3      5484     TIP3     H1       HT       0.417000        1.0080           0
     44097 WT3      5484     TIP3     H2       HT       0.417000        1.0080           0
     44098 WT3      5485     TIP3     OH2      OT      -0.834000       15.9994           0
     44099 WT3      5485     TIP3     H1       HT       0.417000        1.0080           0
     44100 WT3      5485     TIP3     H2       HT       0.417000        1.0080           0
     44101 WT3      5487     TIP3     OH2      OT      -0.834000       15.9994           0
     44102 WT3      5487     TIP3     H1       HT       0.417000        1.0080           0
     44103 WT3      5487     TIP3     H2       HT       0.417000        1.0080           0
     44104 WT3      5491     TIP3     OH2      OT      -0.834000       15.9994           0
     44105 WT3      5491     TIP3     H1       HT       0.417000        1.0080           0
     44106 WT3      5491     TIP3     H2       HT       0.417000        1.0080           0
     44107 WT3      5492     TIP3     OH2      OT      -0.834000       15.9994           0
     44108 WT3      5492     TIP3     H1       HT       0.417000        1.0080           0
     44109 WT3      5492     TIP3     H2       HT       0.417000        1.0080           0
     44110 WT3      5493     TIP3     OH2      OT      -0.834000       15.9994           0
     44111 WT3      5493     TIP3     H1       HT       0.417000        1.0080           0
     44112 WT3      5493     TIP3     H2       HT       0.417000        1.0080           0
     44113 WT3      5494     TIP3     OH2      OT      -0.834000       15.9994           0
     44114 WT3      5494     TIP3     H1       HT       0.417000        1.0080           0
     44115 WT3      5494     TIP3     H2       HT       0.417000        1.0080           0
     44116 WT3      5496     TIP3     OH2      OT      -0.834000       15.9994           0
     44117 WT3      5496     TIP3     H1       HT       0.417000        1.0080           0
     44118 WT3      5496     TIP3     H2       HT       0.417000        1.0080           0
     44119 WT3      5498     TIP3     OH2      OT      -0.834000       15.9994           0
     44120 WT3      5498     TIP3     H1       HT       0.417000        1.0080           0
     44121 WT3      5498     TIP3     H2       HT       0.417000        1.0080           0
     44122 WT3      5503     TIP3     OH2      OT      -0.834000       15.9994           0
     44123 WT3      5503     TIP3     H1       HT       0.417000        1.0080           0
     44124 WT3      5503     TIP3     H2       HT       0.417000        1.0080           0
     44125 WT3      5511     TIP3     OH2      OT      -0.834000       15.9994           0
     44126 WT3      5511     TIP3     H1       HT       0.417000        1.0080           0
     44127 WT3      5511     TIP3     H2       HT       0.417000        1.0080           0
     44128 WT3      5517     TIP3     OH2      OT      -0.834000       15.9994           0
     44129 WT3      5517     TIP3     H1       HT       0.417000        1.0080           0
     44130 WT3      5517     TIP3     H2       HT       0.417000        1.0080           0
     44131 WT3      5528     TIP3     OH2      OT      -0.834000       15.9994           0
     44132 WT3      5528     TIP3     H1       HT       0.417000        1.0080           0
     44133 WT3      5528     TIP3     H2       HT       0.417000        1.0080           0
     44134 WT3      5598     TIP3     OH2      OT      -0.834000       15.9994           0
     44135 WT3      5598     TIP3     H1       HT       0.417000        1.0080           0
     44136 WT3      5598     TIP3     H2       HT       0.417000        1.0080           0
     44137 WT3      5650     TIP3     OH2      OT      -0.834000       15.9994           0
     44138 WT3      5650     TIP3     H1       HT       0.417000        1.0080           0
     44139 WT3      5650     TIP3     H2       HT       0.417000        1.0080           0
     44140 WT3      5654     TIP3     OH2      OT      -0.834000       15.9994           0
     44141 WT3      5654     TIP3     H1       HT       0.417000        1.0080           0
     44142 WT3      5654     TIP3     H2       HT       0.417000        1.0080           0
     44143 WT3      5669     TIP3     OH2      OT      -0.834000       15.9994           0
     44144 WT3      5669     TIP3     H1       HT       0.417000        1.0080           0
     44145 WT3      5669     TIP3     H2       HT       0.417000        1.0080           0
     44146 WT3      5676     TIP3     OH2      OT      -0.834000       15.9994           0
     44147 WT3      5676     TIP3     H1       HT       0.417000        1.0080           0
     44148 WT3      5676     TIP3     H2       HT       0.417000        1.0080           0
     44149 WT3      5678     TIP3     OH2      OT      -0.834000       15.9994           0
     44150 WT3      5678     TIP3     H1       HT       0.417000        1.0080           0
     44151 WT3      5678     TIP3     H2       HT       0.417000        1.0080           0
     44152 WT3      5679     TIP3     OH2      OT      -0.834000       15.9994           0
     44153 WT3      5679     TIP3     H1       HT       0.417000        1.0080           0
     44154 WT3      5679     TIP3     H2       HT       0.417000        1.0080           0
     44155 WT3      5690     TIP3     OH2      OT      -0.834000       15.9994           0
     44156 WT3      5690     TIP3     H1       HT       0.417000        1.0080           0
     44157 WT3      5690     TIP3     H2       HT       0.417000        1.0080           0
     44158 WT3      5691     TIP3     OH2      OT      -0.834000       15.9994           0
     44159 WT3      5691     TIP3     H1       HT       0.417000        1.0080           0
     44160 WT3      5691     TIP3     H2       HT       0.417000        1.0080           0
     44161 WT3      5692     TIP3     OH2      OT      -0.834000       15.9994           0
     44162 WT3      5692     TIP3     H1       HT       0.417000        1.0080           0
     44163 WT3      5692     TIP3     H2       HT       0.417000        1.0080           0
     44164 WT3      5697     TIP3     OH2      OT      -0.834000       15.9994           0
     44165 WT3      5697     TIP3     H1       HT       0.417000        1.0080           0
     44166 WT3      5697     TIP3     H2       HT       0.417000        1.0080           0
     44167 WT3      5704     TIP3     OH2      OT      -0.834000       15.9994           0
     44168 WT3      5704     TIP3     H1       HT       0.417000        1.0080           0
     44169 WT3      5704     TIP3     H2       HT       0.417000        1.0080           0
     44170 WT3      5706     TIP3     OH2      OT      -0.834000       15.9994           0
     44171 WT3      5706     TIP3     H1       HT       0.417000        1.0080           0
     44172 WT3      5706     TIP3     H2       HT       0.417000        1.0080           0
     44173 WT3      5710     TIP3     OH2      OT      -0.834000       15.9994           0
     44174 WT3      5710     TIP3     H1       HT       0.417000        1.0080           0
     44175 WT3      5710     TIP3     H2       HT       0.417000        1.0080           0
     44176 WT3      5711     TIP3     OH2      OT      -0.834000       15.9994           0
     44177 WT3      5711     TIP3     H1       HT       0.417000        1.0080           0
     44178 WT3      5711     TIP3     H2       HT       0.417000        1.0080           0
     44179 WT3      5713     TIP3     OH2      OT      -0.834000       15.9994           0
     44180 WT3      5713     TIP3     H1       HT       0.417000        1.0080           0
     44181 WT3      5713     TIP3     H2       HT       0.417000        1.0080           0
     44182 WT3      5714     TIP3     OH2      OT      -0.834000       15.9994           0
     44183 WT3      5714     TIP3     H1       HT       0.417000        1.0080           0
     44184 WT3      5714     TIP3     H2       HT       0.417000        1.0080           0
     44185 WT3      5715     TIP3     OH2      OT      -0.834000       15.9994           0
     44186 WT3      5715     TIP3     H1       HT       0.417000        1.0080           0
     44187 WT3      5715     TIP3     H2       HT       0.417000        1.0080           0
     44188 WT3      5719     TIP3     OH2      OT      -0.834000       15.9994           0
     44189 WT3      5719     TIP3     H1       HT       0.417000        1.0080           0
     44190 WT3      5719     TIP3     H2       HT       0.417000        1.0080           0
     44191 WT3      5720     TIP3     OH2      OT      -0.834000       15.9994           0
     44192 WT3      5720     TIP3     H1       HT       0.417000        1.0080           0
     44193 WT3      5720     TIP3     H2       HT       0.417000        1.0080           0
     44194 WT3      5722     TIP3     OH2      OT      -0.834000       15.9994           0
     44195 WT3      5722     TIP3     H1       HT       0.417000        1.0080           0
     44196 WT3      5722     TIP3     H2       HT       0.417000        1.0080           0
     44197 WT3      5723     TIP3     OH2      OT      -0.834000       15.9994           0
     44198 WT3      5723     TIP3     H1       HT       0.417000        1.0080           0
     44199 WT3      5723     TIP3     H2       HT       0.417000        1.0080           0
     44200 WT3      5727     TIP3     OH2      OT      -0.834000       15.9994           0
     44201 WT3      5727     TIP3     H1       HT       0.417000        1.0080           0
     44202 WT3      5727     TIP3     H2       HT       0.417000        1.0080           0
     44203 WT3      5733     TIP3     OH2      OT      -0.834000       15.9994           0
     44204 WT3      5733     TIP3     H1       HT       0.417000        1.0080           0
     44205 WT3      5733     TIP3     H2       HT       0.417000        1.0080           0
     44206 WT3      5734     TIP3     OH2      OT      -0.834000       15.9994           0
     44207 WT3      5734     TIP3     H1       HT       0.417000        1.0080           0
     44208 WT3      5734     TIP3     H2       HT       0.417000        1.0080           0
     44209 WT3      5736     TIP3     OH2      OT      -0.834000       15.9994           0
     44210 WT3      5736     TIP3     H1       HT       0.417000        1.0080           0
     44211 WT3      5736     TIP3     H2       HT       0.417000        1.0080           0
     44212 WT3      5738     TIP3     OH2      OT      -0.834000       15.9994           0
     44213 WT3      5738     TIP3     H1       HT       0.417000        1.0080           0
     44214 WT3      5738     TIP3     H2       HT       0.417000        1.0080           0
     44215 WT3      5741     TIP3     OH2      OT      -0.834000       15.9994           0
     44216 WT3      5741     TIP3     H1       HT       0.417000        1.0080           0
     44217 WT3      5741     TIP3     H2       HT       0.417000        1.0080           0
     44218 WT3      5744     TIP3     OH2      OT      -0.834000       15.9994           0
     44219 WT3      5744     TIP3     H1       HT       0.417000        1.0080           0
     44220 WT3      5744     TIP3     H2       HT       0.417000        1.0080           0
     44221 WT3      5749     TIP3     OH2      OT      -0.834000       15.9994           0
     44222 WT3      5749     TIP3     H1       HT       0.417000        1.0080           0
     44223 WT3      5749     TIP3     H2       HT       0.417000        1.0080           0
     44224 WT3      5750     TIP3     OH2      OT      -0.834000       15.9994           0
     44225 WT3      5750     TIP3     H1       HT       0.417000        1.0080           0
     44226 WT3      5750     TIP3     H2       HT       0.417000        1.0080           0
     44227 WT3      5753     TIP3     OH2      OT      -0.834000       15.9994           0
     44228 WT3      5753     TIP3     H1       HT       0.417000        1.0080           0
     44229 WT3      5753     TIP3     H2       HT       0.417000        1.0080           0
     44230 WT3      5754     TIP3     OH2      OT      -0.834000       15.9994           0
     44231 WT3      5754     TIP3     H1       HT       0.417000        1.0080           0
     44232 WT3      5754     TIP3     H2       HT       0.417000        1.0080           0
     44233 WT3      5755     TIP3     OH2      OT      -0.834000       15.9994           0
     44234 WT3      5755     TIP3     H1       HT       0.417000        1.0080           0
     44235 WT3      5755     TIP3     H2       HT       0.417000        1.0080           0
     44236 WT3      5756     TIP3     OH2      OT      -0.834000       15.9994           0
     44237 WT3      5756     TIP3     H1       HT       0.417000        1.0080           0
     44238 WT3      5756     TIP3     H2       HT       0.417000        1.0080           0
     44239 WT3      5757     TIP3     OH2      OT      -0.834000       15.9994           0
     44240 WT3      5757     TIP3     H1       HT       0.417000        1.0080           0
     44241 WT3      5757     TIP3     H2       HT       0.417000        1.0080           0
     44242 WT3      5758     TIP3     OH2      OT      -0.834000       15.9994           0
     44243 WT3      5758     TIP3     H1       HT       0.417000        1.0080           0
     44244 WT3      5758     TIP3     H2       HT       0.417000        1.0080           0
     44245 WT3      5760     TIP3     OH2      OT      -0.834000       15.9994           0
     44246 WT3      5760     TIP3     H1       HT       0.417000        1.0080           0
     44247 WT3      5760     TIP3     H2       HT       0.417000        1.0080           0
     44248 WT3      5762     TIP3     OH2      OT      -0.834000       15.9994           0
     44249 WT3      5762     TIP3     H1       HT       0.417000        1.0080           0
     44250 WT3      5762     TIP3     H2       HT       0.417000        1.0080           0
     44251 WT3      5764     TIP3     OH2      OT      -0.834000       15.9994           0
     44252 WT3      5764     TIP3     H1       HT       0.417000        1.0080           0
     44253 WT3      5764     TIP3     H2       HT       0.417000        1.0080           0
     44254 WT3      5765     TIP3     OH2      OT      -0.834000       15.9994           0
     44255 WT3      5765     TIP3     H1       HT       0.417000        1.0080           0
     44256 WT3      5765     TIP3     H2       HT       0.417000        1.0080           0
     44257 WT3      5767     TIP3     OH2      OT      -0.834000       15.9994           0
     44258 WT3      5767     TIP3     H1       HT       0.417000        1.0080           0
     44259 WT3      5767     TIP3     H2       HT       0.417000        1.0080           0
     44260 WT3      5768     TIP3     OH2      OT      -0.834000       15.9994           0
     44261 WT3      5768     TIP3     H1       HT       0.417000        1.0080           0
     44262 WT3      5768     TIP3     H2       HT       0.417000        1.0080           0
     44263 WT3      5772     TIP3     OH2      OT      -0.834000       15.9994           0
     44264 WT3      5772     TIP3     H1       HT       0.417000        1.0080           0
     44265 WT3      5772     TIP3     H2       HT       0.417000        1.0080           0
     44266 WT3      5774     TIP3     OH2      OT      -0.834000       15.9994           0
     44267 WT3      5774     TIP3     H1       HT       0.417000        1.0080           0
     44268 WT3      5774     TIP3     H2       HT       0.417000        1.0080           0
     44269 WT3      5776     TIP3     OH2      OT      -0.834000       15.9994           0
     44270 WT3      5776     TIP3     H1       HT       0.417000        1.0080           0
     44271 WT3      5776     TIP3     H2       HT       0.417000        1.0080           0
     44272 WT3      5777     TIP3     OH2      OT      -0.834000       15.9994           0
     44273 WT3      5777     TIP3     H1       HT       0.417000        1.0080           0
     44274 WT3      5777     TIP3     H2       HT       0.417000        1.0080           0
     44275 WT3      5778     TIP3     OH2      OT      -0.834000       15.9994           0
     44276 WT3      5778     TIP3     H1       HT       0.417000        1.0080           0
     44277 WT3      5778     TIP3     H2       HT       0.417000        1.0080           0
     44278 WT3      5779     TIP3     OH2      OT      -0.834000       15.9994           0
     44279 WT3      5779     TIP3     H1       HT       0.417000        1.0080           0
     44280 WT3      5779     TIP3     H2       HT       0.417000        1.0080           0
     44281 WT3      5780     TIP3     OH2      OT      -0.834000       15.9994           0
     44282 WT3      5780     TIP3     H1       HT       0.417000        1.0080           0
     44283 WT3      5780     TIP3     H2       HT       0.417000        1.0080           0
     44284 WT3      5781     TIP3     OH2      OT      -0.834000       15.9994           0
     44285 WT3      5781     TIP3     H1       HT       0.417000        1.0080           0
     44286 WT3      5781     TIP3     H2       HT       0.417000        1.0080           0
     44287 WT3      5782     TIP3     OH2      OT      -0.834000       15.9994           0
     44288 WT3      5782     TIP3     H1       HT       0.417000        1.0080           0
     44289 WT3      5782     TIP3     H2       HT       0.417000        1.0080           0
     44290 WT3      5783     TIP3     OH2      OT      -0.834000       15.9994           0
     44291 WT3      5783     TIP3     H1       HT       0.417000        1.0080           0
     44292 WT3      5783     TIP3     H2       HT       0.417000        1.0080           0
     44293 WT3      5784     TIP3     OH2      OT      -0.834000       15.9994           0
     44294 WT3      5784     TIP3     H1       HT       0.417000        1.0080           0
     44295 WT3      5784     TIP3     H2       HT       0.417000        1.0080           0
     44296 WT3      5785     TIP3     OH2      OT      -0.834000       15.9994           0
     44297 WT3      5785     TIP3     H1       HT       0.417000        1.0080           0
     44298 WT3      5785     TIP3     H2       HT       0.417000        1.0080           0
     44299 WT3      5786     TIP3     OH2      OT      -0.834000       15.9994           0
     44300 WT3      5786     TIP3     H1       HT       0.417000        1.0080           0
     44301 WT3      5786     TIP3     H2       HT       0.417000        1.0080           0
     44302 WT3      5787     TIP3     OH2      OT      -0.834000       15.9994           0
     44303 WT3      5787     TIP3     H1       HT       0.417000        1.0080           0
     44304 WT3      5787     TIP3     H2       HT       0.417000        1.0080           0
     44305 WT3      5788     TIP3     OH2      OT      -0.834000       15.9994           0
     44306 WT3      5788     TIP3     H1       HT       0.417000        1.0080           0
     44307 WT3      5788     TIP3     H2       HT       0.417000        1.0080           0
     44308 WT3      5790     TIP3     OH2      OT      -0.834000       15.9994           0
     44309 WT3      5790     TIP3     H1       HT       0.417000        1.0080           0
     44310 WT3      5790     TIP3     H2       HT       0.417000        1.0080           0
     44311 WT3      5791     TIP3     OH2      OT      -0.834000       15.9994           0
     44312 WT3      5791     TIP3     H1       HT       0.417000        1.0080           0
     44313 WT3      5791     TIP3     H2       HT       0.417000        1.0080           0
     44314 WT3      5793     TIP3     OH2      OT      -0.834000       15.9994           0
     44315 WT3      5793     TIP3     H1       HT       0.417000        1.0080           0
     44316 WT3      5793     TIP3     H2       HT       0.417000        1.0080           0
     44317 WT3      5794     TIP3     OH2      OT      -0.834000       15.9994           0
     44318 WT3      5794     TIP3     H1       HT       0.417000        1.0080           0
     44319 WT3      5794     TIP3     H2       HT       0.417000        1.0080           0
     44320 WT3      5795     TIP3     OH2      OT      -0.834000       15.9994           0
     44321 WT3      5795     TIP3     H1       HT       0.417000        1.0080           0
     44322 WT3      5795     TIP3     H2       HT       0.417000        1.0080           0
     44323 WT3      5796     TIP3     OH2      OT      -0.834000       15.9994           0
     44324 WT3      5796     TIP3     H1       HT       0.417000        1.0080           0
     44325 WT3      5796     TIP3     H2       HT       0.417000        1.0080           0
     44326 WT3      5797     TIP3     OH2      OT      -0.834000       15.9994           0
     44327 WT3      5797     TIP3     H1       HT       0.417000        1.0080           0
     44328 WT3      5797     TIP3     H2       HT       0.417000        1.0080           0
     44329 WT3      5798     TIP3     OH2      OT      -0.834000       15.9994           0
     44330 WT3      5798     TIP3     H1       HT       0.417000        1.0080           0
     44331 WT3      5798     TIP3     H2       HT       0.417000        1.0080           0
     44332 WT3      5799     TIP3     OH2      OT      -0.834000       15.9994           0
     44333 WT3      5799     TIP3     H1       HT       0.417000        1.0080           0
     44334 WT3      5799     TIP3     H2       HT       0.417000        1.0080           0
     44335 WT3      5800     TIP3     OH2      OT      -0.834000       15.9994           0
     44336 WT3      5800     TIP3     H1       HT       0.417000        1.0080           0
     44337 WT3      5800     TIP3     H2       HT       0.417000        1.0080           0
     44338 WT3      5801     TIP3     OH2      OT      -0.834000       15.9994           0
     44339 WT3      5801     TIP3     H1       HT       0.417000        1.0080           0
     44340 WT3      5801     TIP3     H2       HT       0.417000        1.0080           0
     44341 WT3      5802     TIP3     OH2      OT      -0.834000       15.9994           0
     44342 WT3      5802     TIP3     H1       HT       0.417000        1.0080           0
     44343 WT3      5802     TIP3     H2       HT       0.417000        1.0080           0
     44344 WT3      5803     TIP3     OH2      OT      -0.834000       15.9994           0
     44345 WT3      5803     TIP3     H1       HT       0.417000        1.0080           0
     44346 WT3      5803     TIP3     H2       HT       0.417000        1.0080           0
     44347 WT3      5804     TIP3     OH2      OT      -0.834000       15.9994           0
     44348 WT3      5804     TIP3     H1       HT       0.417000        1.0080           0
     44349 WT3      5804     TIP3     H2       HT       0.417000        1.0080           0
     44350 WT3      5805     TIP3     OH2      OT      -0.834000       15.9994           0
     44351 WT3      5805     TIP3     H1       HT       0.417000        1.0080           0
     44352 WT3      5805     TIP3     H2       HT       0.417000        1.0080           0
     44353 WT3      5806     TIP3     OH2      OT      -0.834000       15.9994           0
     44354 WT3      5806     TIP3     H1       HT       0.417000        1.0080           0
     44355 WT3      5806     TIP3     H2       HT       0.417000        1.0080           0
     44356 WT3      5807     TIP3     OH2      OT      -0.834000       15.9994           0
     44357 WT3      5807     TIP3     H1       HT       0.417000        1.0080           0
     44358 WT3      5807     TIP3     H2       HT       0.417000        1.0080           0
     44359 WT3      5808     TIP3     OH2      OT      -0.834000       15.9994           0
     44360 WT3      5808     TIP3     H1       HT       0.417000        1.0080           0
     44361 WT3      5808     TIP3     H2       HT       0.417000        1.0080           0
     44362 WT3      5809     TIP3     OH2      OT      -0.834000       15.9994           0
     44363 WT3      5809     TIP3     H1       HT       0.417000        1.0080           0
     44364 WT3      5809     TIP3     H2       HT       0.417000        1.0080           0
     44365 WT3      5810     TIP3     OH2      OT      -0.834000       15.9994           0
     44366 WT3      5810     TIP3     H1       HT       0.417000        1.0080           0
     44367 WT3      5810     TIP3     H2       HT       0.417000        1.0080           0
     44368 WT3      5812     TIP3     OH2      OT      -0.834000       15.9994           0
     44369 WT3      5812     TIP3     H1       HT       0.417000        1.0080           0
     44370 WT3      5812     TIP3     H2       HT       0.417000        1.0080           0
     44371 WT3      5813     TIP3     OH2      OT      -0.834000       15.9994           0
     44372 WT3      5813     TIP3     H1       HT       0.417000        1.0080           0
     44373 WT3      5813     TIP3     H2       HT       0.417000        1.0080           0
     44374 WT3      5814     TIP3     OH2      OT      -0.834000       15.9994           0
     44375 WT3      5814     TIP3     H1       HT       0.417000        1.0080           0
     44376 WT3      5814     TIP3     H2       HT       0.417000        1.0080           0
     44377 WT3      5815     TIP3     OH2      OT      -0.834000       15.9994           0
     44378 WT3      5815     TIP3     H1       HT       0.417000        1.0080           0
     44379 WT3      5815     TIP3     H2       HT       0.417000        1.0080           0
     44380 WT3      5816     TIP3     OH2      OT      -0.834000       15.9994           0
     44381 WT3      5816     TIP3     H1       HT       0.417000        1.0080           0
     44382 WT3      5816     TIP3     H2       HT       0.417000        1.0080           0
     44383 WT3      5817     TIP3     OH2      OT      -0.834000       15.9994           0
     44384 WT3      5817     TIP3     H1       HT       0.417000        1.0080           0
     44385 WT3      5817     TIP3     H2       HT       0.417000        1.0080           0
     44386 WT3      5819     TIP3     OH2      OT      -0.834000       15.9994           0
     44387 WT3      5819     TIP3     H1       HT       0.417000        1.0080           0
     44388 WT3      5819     TIP3     H2       HT       0.417000        1.0080           0
     44389 WT3      5820     TIP3     OH2      OT      -0.834000       15.9994           0
     44390 WT3      5820     TIP3     H1       HT       0.417000        1.0080           0
     44391 WT3      5820     TIP3     H2       HT       0.417000        1.0080           0
     44392 WT3      5821     TIP3     OH2      OT      -0.834000       15.9994           0
     44393 WT3      5821     TIP3     H1       HT       0.417000        1.0080           0
     44394 WT3      5821     TIP3     H2       HT       0.417000        1.0080           0
     44395 WT3      5823     TIP3     OH2      OT      -0.834000       15.9994           0
     44396 WT3      5823     TIP3     H1       HT       0.417000        1.0080           0
     44397 WT3      5823     TIP3     H2       HT       0.417000        1.0080           0
     44398 WT3      5824     TIP3     OH2      OT      -0.834000       15.9994           0
     44399 WT3      5824     TIP3     H1       HT       0.417000        1.0080           0
     44400 WT3      5824     TIP3     H2       HT       0.417000        1.0080           0
     44401 WT3      5826     TIP3     OH2      OT      -0.834000       15.9994           0
     44402 WT3      5826     TIP3     H1       HT       0.417000        1.0080           0
     44403 WT3      5826     TIP3     H2       HT       0.417000        1.0080           0
     44404 WT3      5827     TIP3     OH2      OT      -0.834000       15.9994           0
     44405 WT3      5827     TIP3     H1       HT       0.417000        1.0080           0
     44406 WT3      5827     TIP3     H2       HT       0.417000        1.0080           0
     44407 WT3      5828     TIP3     OH2      OT      -0.834000       15.9994           0
     44408 WT3      5828     TIP3     H1       HT       0.417000        1.0080           0
     44409 WT3      5828     TIP3     H2       HT       0.417000        1.0080           0
     44410 WT3      5830     TIP3     OH2      OT      -0.834000       15.9994           0
     44411 WT3      5830     TIP3     H1       HT       0.417000        1.0080           0
     44412 WT3      5830     TIP3     H2       HT       0.417000        1.0080           0
     44413 WT3      5834     TIP3     OH2      OT      -0.834000       15.9994           0
     44414 WT3      5834     TIP3     H1       HT       0.417000        1.0080           0
     44415 WT3      5834     TIP3     H2       HT       0.417000        1.0080           0
     44416 WT3      5835     TIP3     OH2      OT      -0.834000       15.9994           0
     44417 WT3      5835     TIP3     H1       HT       0.417000        1.0080           0
     44418 WT3      5835     TIP3     H2       HT       0.417000        1.0080           0
     44419 WT3      5836     TIP3     OH2      OT      -0.834000       15.9994           0
     44420 WT3      5836     TIP3     H1       HT       0.417000        1.0080           0
     44421 WT3      5836     TIP3     H2       HT       0.417000        1.0080           0
     44422 WT3      5837     TIP3     OH2      OT      -0.834000       15.9994           0
     44423 WT3      5837     TIP3     H1       HT       0.417000        1.0080           0
     44424 WT3      5837     TIP3     H2       HT       0.417000        1.0080           0
     44425 WT3      5838     TIP3     OH2      OT      -0.834000       15.9994           0
     44426 WT3      5838     TIP3     H1       HT       0.417000        1.0080           0
     44427 WT3      5838     TIP3     H2       HT       0.417000        1.0080           0
     44428 WT3      5839     TIP3     OH2      OT      -0.834000       15.9994           0
     44429 WT3      5839     TIP3     H1       HT       0.417000        1.0080           0
     44430 WT3      5839     TIP3     H2       HT       0.417000        1.0080           0
     44431 WT3      5841     TIP3     OH2      OT      -0.834000       15.9994           0
     44432 WT3      5841     TIP3     H1       HT       0.417000        1.0080           0
     44433 WT3      5841     TIP3     H2       HT       0.417000        1.0080           0
     44434 WT3      5842     TIP3     OH2      OT      -0.834000       15.9994           0
     44435 WT3      5842     TIP3     H1       HT       0.417000        1.0080           0
     44436 WT3      5842     TIP3     H2       HT       0.417000        1.0080           0
     44437 WT3      5843     TIP3     OH2      OT      -0.834000       15.9994           0
     44438 WT3      5843     TIP3     H1       HT       0.417000        1.0080           0
     44439 WT3      5843     TIP3     H2       HT       0.417000        1.0080           0
     44440 WT3      5844     TIP3     OH2      OT      -0.834000       15.9994           0
     44441 WT3      5844     TIP3     H1       HT       0.417000        1.0080           0
     44442 WT3      5844     TIP3     H2       HT       0.417000        1.0080           0
     44443 WT3      5846     TIP3     OH2      OT      -0.834000       15.9994           0
     44444 WT3      5846     TIP3     H1       HT       0.417000        1.0080           0
     44445 WT3      5846     TIP3     H2       HT       0.417000        1.0080           0
     44446 WT3      5848     TIP3     OH2      OT      -0.834000       15.9994           0
     44447 WT3      5848     TIP3     H1       HT       0.417000        1.0080           0
     44448 WT3      5848     TIP3     H2       HT       0.417000        1.0080           0
     44449 WT3      5849     TIP3     OH2      OT      -0.834000       15.9994           0
     44450 WT3      5849     TIP3     H1       HT       0.417000        1.0080           0
     44451 WT3      5849     TIP3     H2       HT       0.417000        1.0080           0
     44452 WT3      5851     TIP3     OH2      OT      -0.834000       15.9994           0
     44453 WT3      5851     TIP3     H1       HT       0.417000        1.0080           0
     44454 WT3      5851     TIP3     H2       HT       0.417000        1.0080           0
     44455 WT3      5852     TIP3     OH2      OT      -0.834000       15.9994           0
     44456 WT3      5852     TIP3     H1       HT       0.417000        1.0080           0
     44457 WT3      5852     TIP3     H2       HT       0.417000        1.0080           0
     44458 WT3      5853     TIP3     OH2      OT      -0.834000       15.9994           0
     44459 WT3      5853     TIP3     H1       HT       0.417000        1.0080           0
     44460 WT3      5853     TIP3     H2       HT       0.417000        1.0080           0
     44461 WT3      5854     TIP3     OH2      OT      -0.834000       15.9994           0
     44462 WT3      5854     TIP3     H1       HT       0.417000        1.0080           0
     44463 WT3      5854     TIP3     H2       HT       0.417000        1.0080           0
     44464 WT3      5855     TIP3     OH2      OT      -0.834000       15.9994           0
     44465 WT3      5855     TIP3     H1       HT       0.417000        1.0080           0
     44466 WT3      5855     TIP3     H2       HT       0.417000        1.0080           0
     44467 WT3      5856     TIP3     OH2      OT      -0.834000       15.9994           0
     44468 WT3      5856     TIP3     H1       HT       0.417000        1.0080           0
     44469 WT3      5856     TIP3     H2       HT       0.417000        1.0080           0
     44470 WT3      5857     TIP3     OH2      OT      -0.834000       15.9994           0
     44471 WT3      5857     TIP3     H1       HT       0.417000        1.0080           0
     44472 WT3      5857     TIP3     H2       HT       0.417000        1.0080           0
     44473 WT3      5858     TIP3     OH2      OT      -0.834000       15.9994           0
     44474 WT3      5858     TIP3     H1       HT       0.417000        1.0080           0
     44475 WT3      5858     TIP3     H2       HT       0.417000        1.0080           0
     44476 WT3      5859     TIP3     OH2      OT      -0.834000       15.9994           0
     44477 WT3      5859     TIP3     H1       HT       0.417000        1.0080           0
     44478 WT3      5859     TIP3     H2       HT       0.417000        1.0080           0
     44479 WT3      5860     TIP3     OH2      OT      -0.834000       15.9994           0
     44480 WT3      5860     TIP3     H1       HT       0.417000        1.0080           0
     44481 WT3      5860     TIP3     H2       HT       0.417000        1.0080           0
     44482 WT3      5862     TIP3     OH2      OT      -0.834000       15.9994           0
     44483 WT3      5862     TIP3     H1       HT       0.417000        1.0080           0
     44484 WT3      5862     TIP3     H2       HT       0.417000        1.0080           0
     44485 WT3      5863     TIP3     OH2      OT      -0.834000       15.9994           0
     44486 WT3      5863     TIP3     H1       HT       0.417000        1.0080           0
     44487 WT3      5863     TIP3     H2       HT       0.417000        1.0080           0
     44488 WT3      5864     TIP3     OH2      OT      -0.834000       15.9994           0
     44489 WT3      5864     TIP3     H1       HT       0.417000        1.0080           0
     44490 WT3      5864     TIP3     H2       HT       0.417000        1.0080           0
     44491 WT3      5865     TIP3     OH2      OT      -0.834000       15.9994           0
     44492 WT3      5865     TIP3     H1       HT       0.417000        1.0080           0
     44493 WT3      5865     TIP3     H2       HT       0.417000        1.0080           0
     44494 WT3      5866     TIP3     OH2      OT      -0.834000       15.9994           0
     44495 WT3      5866     TIP3     H1       HT       0.417000        1.0080           0
     44496 WT3      5866     TIP3     H2       HT       0.417000        1.0080           0
     44497 WT3      5867     TIP3     OH2      OT      -0.834000       15.9994           0
     44498 WT3      5867     TIP3     H1       HT       0.417000        1.0080           0
     44499 WT3      5867     TIP3     H2       HT       0.417000        1.0080           0
     44500 WT3      5868     TIP3     OH2      OT      -0.834000       15.9994           0
     44501 WT3      5868     TIP3     H1       HT       0.417000        1.0080           0
     44502 WT3      5868     TIP3     H2       HT       0.417000        1.0080           0
     44503 WT3      5869     TIP3     OH2      OT      -0.834000       15.9994           0
     44504 WT3      5869     TIP3     H1       HT       0.417000        1.0080           0
     44505 WT3      5869     TIP3     H2       HT       0.417000        1.0080           0
     44506 WT3      5871     TIP3     OH2      OT      -0.834000       15.9994           0
     44507 WT3      5871     TIP3     H1       HT       0.417000        1.0080           0
     44508 WT3      5871     TIP3     H2       HT       0.417000        1.0080           0
     44509 WT3      5873     TIP3     OH2      OT      -0.834000       15.9994           0
     44510 WT3      5873     TIP3     H1       HT       0.417000        1.0080           0
     44511 WT3      5873     TIP3     H2       HT       0.417000        1.0080           0
     44512 WT3      5874     TIP3     OH2      OT      -0.834000       15.9994           0
     44513 WT3      5874     TIP3     H1       HT       0.417000        1.0080           0
     44514 WT3      5874     TIP3     H2       HT       0.417000        1.0080           0
     44515 WT3      5875     TIP3     OH2      OT      -0.834000       15.9994           0
     44516 WT3      5875     TIP3     H1       HT       0.417000        1.0080           0
     44517 WT3      5875     TIP3     H2       HT       0.417000        1.0080           0
     44518 WT3      5876     TIP3     OH2      OT      -0.834000       15.9994           0
     44519 WT3      5876     TIP3     H1       HT       0.417000        1.0080           0
     44520 WT3      5876     TIP3     H2       HT       0.417000        1.0080           0
     44521 WT3      5877     TIP3     OH2      OT      -0.834000       15.9994           0
     44522 WT3      5877     TIP3     H1       HT       0.417000        1.0080           0
     44523 WT3      5877     TIP3     H2       HT       0.417000        1.0080           0
     44524 WT3      5878     TIP3     OH2      OT      -0.834000       15.9994           0
     44525 WT3      5878     TIP3     H1       HT       0.417000        1.0080           0
     44526 WT3      5878     TIP3     H2       HT       0.417000        1.0080           0
     44527 WT3      5879     TIP3     OH2      OT      -0.834000       15.9994           0
     44528 WT3      5879     TIP3     H1       HT       0.417000        1.0080           0
     44529 WT3      5879     TIP3     H2       HT       0.417000        1.0080           0
     44530 WT3      5880     TIP3     OH2      OT      -0.834000       15.9994           0
     44531 WT3      5880     TIP3     H1       HT       0.417000        1.0080           0
     44532 WT3      5880     TIP3     H2       HT       0.417000        1.0080           0
     44533 WT3      5881     TIP3     OH2      OT      -0.834000       15.9994           0
     44534 WT3      5881     TIP3     H1       HT       0.417000        1.0080           0
     44535 WT3      5881     TIP3     H2       HT       0.417000        1.0080           0
     44536 WT3      5884     TIP3     OH2      OT      -0.834000       15.9994           0
     44537 WT3      5884     TIP3     H1       HT       0.417000        1.0080           0
     44538 WT3      5884     TIP3     H2       HT       0.417000        1.0080           0
     44539 WT3      5888     TIP3     OH2      OT      -0.834000       15.9994           0
     44540 WT3      5888     TIP3     H1       HT       0.417000        1.0080           0
     44541 WT3      5888     TIP3     H2       HT       0.417000        1.0080           0
     44542 WT3      5889     TIP3     OH2      OT      -0.834000       15.9994           0
     44543 WT3      5889     TIP3     H1       HT       0.417000        1.0080           0
     44544 WT3      5889     TIP3     H2       HT       0.417000        1.0080           0
     44545 WT3      5890     TIP3     OH2      OT      -0.834000       15.9994           0
     44546 WT3      5890     TIP3     H1       HT       0.417000        1.0080           0
     44547 WT3      5890     TIP3     H2       HT       0.417000        1.0080           0
     44548 WT3      5893     TIP3     OH2      OT      -0.834000       15.9994           0
     44549 WT3      5893     TIP3     H1       HT       0.417000        1.0080           0
     44550 WT3      5893     TIP3     H2       HT       0.417000        1.0080           0
     44551 WT3      5894     TIP3     OH2      OT      -0.834000       15.9994           0
     44552 WT3      5894     TIP3     H1       HT       0.417000        1.0080           0
     44553 WT3      5894     TIP3     H2       HT       0.417000        1.0080           0
     44554 WT3      5897     TIP3     OH2      OT      -0.834000       15.9994           0
     44555 WT3      5897     TIP3     H1       HT       0.417000        1.0080           0
     44556 WT3      5897     TIP3     H2       HT       0.417000        1.0080           0
     44557 WT3      5898     TIP3     OH2      OT      -0.834000       15.9994           0
     44558 WT3      5898     TIP3     H1       HT       0.417000        1.0080           0
     44559 WT3      5898     TIP3     H2       HT       0.417000        1.0080           0
     44560 WT3      5900     TIP3     OH2      OT      -0.834000       15.9994           0
     44561 WT3      5900     TIP3     H1       HT       0.417000        1.0080           0
     44562 WT3      5900     TIP3     H2       HT       0.417000        1.0080           0
     44563 WT3      5901     TIP3     OH2      OT      -0.834000       15.9994           0
     44564 WT3      5901     TIP3     H1       HT       0.417000        1.0080           0
     44565 WT3      5901     TIP3     H2       HT       0.417000        1.0080           0
     44566 WT3      5907     TIP3     OH2      OT      -0.834000       15.9994           0
     44567 WT3      5907     TIP3     H1       HT       0.417000        1.0080           0
     44568 WT3      5907     TIP3     H2       HT       0.417000        1.0080           0
     44569 WT3      5909     TIP3     OH2      OT      -0.834000       15.9994           0
     44570 WT3      5909     TIP3     H1       HT       0.417000        1.0080           0
     44571 WT3      5909     TIP3     H2       HT       0.417000        1.0080           0
     44572 WT3      5911     TIP3     OH2      OT      -0.834000       15.9994           0
     44573 WT3      5911     TIP3     H1       HT       0.417000        1.0080           0
     44574 WT3      5911     TIP3     H2       HT       0.417000        1.0080           0
     44575 WT3      5913     TIP3     OH2      OT      -0.834000       15.9994           0
     44576 WT3      5913     TIP3     H1       HT       0.417000        1.0080           0
     44577 WT3      5913     TIP3     H2       HT       0.417000        1.0080           0
     44578 WT3      5914     TIP3     OH2      OT      -0.834000       15.9994           0
     44579 WT3      5914     TIP3     H1       HT       0.417000        1.0080           0
     44580 WT3      5914     TIP3     H2       HT       0.417000        1.0080           0
     44581 WT3      5916     TIP3     OH2      OT      -0.834000       15.9994           0
     44582 WT3      5916     TIP3     H1       HT       0.417000        1.0080           0
     44583 WT3      5916     TIP3     H2       HT       0.417000        1.0080           0
     44584 WT3      5917     TIP3     OH2      OT      -0.834000       15.9994           0
     44585 WT3      5917     TIP3     H1       HT       0.417000        1.0080           0
     44586 WT3      5917     TIP3     H2       HT       0.417000        1.0080           0
     44587 WT3      5919     TIP3     OH2      OT      -0.834000       15.9994           0
     44588 WT3      5919     TIP3     H1       HT       0.417000        1.0080           0
     44589 WT3      5919     TIP3     H2       HT       0.417000        1.0080           0
     44590 WT3      5920     TIP3     OH2      OT      -0.834000       15.9994           0
     44591 WT3      5920     TIP3     H1       HT       0.417000        1.0080           0
     44592 WT3      5920     TIP3     H2       HT       0.417000        1.0080           0
     44593 WT3      5921     TIP3     OH2      OT      -0.834000       15.9994           0
     44594 WT3      5921     TIP3     H1       HT       0.417000        1.0080           0
     44595 WT3      5921     TIP3     H2       HT       0.417000        1.0080           0
     44596 WT3      5926     TIP3     OH2      OT      -0.834000       15.9994           0
     44597 WT3      5926     TIP3     H1       HT       0.417000        1.0080           0
     44598 WT3      5926     TIP3     H2       HT       0.417000        1.0080           0
     44599 WT3      5929     TIP3     OH2      OT      -0.834000       15.9994           0
     44600 WT3      5929     TIP3     H1       HT       0.417000        1.0080           0
     44601 WT3      5929     TIP3     H2       HT       0.417000        1.0080           0
     44602 WT3      5942     TIP3     OH2      OT      -0.834000       15.9994           0
     44603 WT3      5942     TIP3     H1       HT       0.417000        1.0080           0
     44604 WT3      5942     TIP3     H2       HT       0.417000        1.0080           0
     44605 WT3      5947     TIP3     OH2      OT      -0.834000       15.9994           0
     44606 WT3      5947     TIP3     H1       HT       0.417000        1.0080           0
     44607 WT3      5947     TIP3     H2       HT       0.417000        1.0080           0
     44608 WT3      5949     TIP3     OH2      OT      -0.834000       15.9994           0
     44609 WT3      5949     TIP3     H1       HT       0.417000        1.0080           0
     44610 WT3      5949     TIP3     H2       HT       0.417000        1.0080           0
     44611 WT3      5953     TIP3     OH2      OT      -0.834000       15.9994           0
     44612 WT3      5953     TIP3     H1       HT       0.417000        1.0080           0
     44613 WT3      5953     TIP3     H2       HT       0.417000        1.0080           0
     44614 WT3      5954     TIP3     OH2      OT      -0.834000       15.9994           0
     44615 WT3      5954     TIP3     H1       HT       0.417000        1.0080           0
     44616 WT3      5954     TIP3     H2       HT       0.417000        1.0080           0
     44617 WT3      5975     TIP3     OH2      OT      -0.834000       15.9994           0
     44618 WT3      5975     TIP3     H1       HT       0.417000        1.0080           0
     44619 WT3      5975     TIP3     H2       HT       0.417000        1.0080           0
     44620 WT3      6004     TIP3     OH2      OT      -0.834000       15.9994           0
     44621 WT3      6004     TIP3     H1       HT       0.417000        1.0080           0
     44622 WT3      6004     TIP3     H2       HT       0.417000        1.0080           0
     44623 WT3      6091     TIP3     OH2      OT      -0.834000       15.9994           0
     44624 WT3      6091     TIP3     H1       HT       0.417000        1.0080           0
     44625 WT3      6091     TIP3     H2       HT       0.417000        1.0080           0
     44626 WT3      6107     TIP3     OH2      OT      -0.834000       15.9994           0
     44627 WT3      6107     TIP3     H1       HT       0.417000        1.0080           0
     44628 WT3      6107     TIP3     H2       HT       0.417000        1.0080           0
     44629 WT3      6110     TIP3     OH2      OT      -0.834000       15.9994           0
     44630 WT3      6110     TIP3     H1       HT       0.417000        1.0080           0
     44631 WT3      6110     TIP3     H2       HT       0.417000        1.0080           0
     44632 WT3      6122     TIP3     OH2      OT      -0.834000       15.9994           0
     44633 WT3      6122     TIP3     H1       HT       0.417000        1.0080           0
     44634 WT3      6122     TIP3     H2       HT       0.417000        1.0080           0
     44635 WT3      6126     TIP3     OH2      OT      -0.834000       15.9994           0
     44636 WT3      6126     TIP3     H1       HT       0.417000        1.0080           0
     44637 WT3      6126     TIP3     H2       HT       0.417000        1.0080           0
     44638 WT3      6131     TIP3     OH2      OT      -0.834000       15.9994           0
     44639 WT3      6131     TIP3     H1       HT       0.417000        1.0080           0
     44640 WT3      6131     TIP3     H2       HT       0.417000        1.0080           0
     44641 WT3      6134     TIP3     OH2      OT      -0.834000       15.9994           0
     44642 WT3      6134     TIP3     H1       HT       0.417000        1.0080           0
     44643 WT3      6134     TIP3     H2       HT       0.417000        1.0080           0
     44644 WT3      6136     TIP3     OH2      OT      -0.834000       15.9994           0
     44645 WT3      6136     TIP3     H1       HT       0.417000        1.0080           0
     44646 WT3      6136     TIP3     H2       HT       0.417000        1.0080           0
     44647 WT3      6138     TIP3     OH2      OT      -0.834000       15.9994           0
     44648 WT3      6138     TIP3     H1       HT       0.417000        1.0080           0
     44649 WT3      6138     TIP3     H2       HT       0.417000        1.0080           0
     44650 WT3      6139     TIP3     OH2      OT      -0.834000       15.9994           0
     44651 WT3      6139     TIP3     H1       HT       0.417000        1.0080           0
     44652 WT3      6139     TIP3     H2       HT       0.417000        1.0080           0
     44653 WT3      6146     TIP3     OH2      OT      -0.834000       15.9994           0
     44654 WT3      6146     TIP3     H1       HT       0.417000        1.0080           0
     44655 WT3      6146     TIP3     H2       HT       0.417000        1.0080           0
     44656 WT3      6147     TIP3     OH2      OT      -0.834000       15.9994           0
     44657 WT3      6147     TIP3     H1       HT       0.417000        1.0080           0
     44658 WT3      6147     TIP3     H2       HT       0.417000        1.0080           0
     44659 WT3      6153     TIP3     OH2      OT      -0.834000       15.9994           0
     44660 WT3      6153     TIP3     H1       HT       0.417000        1.0080           0
     44661 WT3      6153     TIP3     H2       HT       0.417000        1.0080           0
     44662 WT3      6157     TIP3     OH2      OT      -0.834000       15.9994           0
     44663 WT3      6157     TIP3     H1       HT       0.417000        1.0080           0
     44664 WT3      6157     TIP3     H2       HT       0.417000        1.0080           0
     44665 WT3      6158     TIP3     OH2      OT      -0.834000       15.9994           0
     44666 WT3      6158     TIP3     H1       HT       0.417000        1.0080           0
     44667 WT3      6158     TIP3     H2       HT       0.417000        1.0080           0
     44668 WT3      6163     TIP3     OH2      OT      -0.834000       15.9994           0
     44669 WT3      6163     TIP3     H1       HT       0.417000        1.0080           0
     44670 WT3      6163     TIP3     H2       HT       0.417000        1.0080           0
     44671 WT3      6166     TIP3     OH2      OT      -0.834000       15.9994           0
     44672 WT3      6166     TIP3     H1       HT       0.417000        1.0080           0
     44673 WT3      6166     TIP3     H2       HT       0.417000        1.0080           0
     44674 WT3      6172     TIP3     OH2      OT      -0.834000       15.9994           0
     44675 WT3      6172     TIP3     H1       HT       0.417000        1.0080           0
     44676 WT3      6172     TIP3     H2       HT       0.417000        1.0080           0
     44677 WT3      6174     TIP3     OH2      OT      -0.834000       15.9994           0
     44678 WT3      6174     TIP3     H1       HT       0.417000        1.0080           0
     44679 WT3      6174     TIP3     H2       HT       0.417000        1.0080           0
     44680 WT3      6176     TIP3     OH2      OT      -0.834000       15.9994           0
     44681 WT3      6176     TIP3     H1       HT       0.417000        1.0080           0
     44682 WT3      6176     TIP3     H2       HT       0.417000        1.0080           0
     44683 WT3      6177     TIP3     OH2      OT      -0.834000       15.9994           0
     44684 WT3      6177     TIP3     H1       HT       0.417000        1.0080           0
     44685 WT3      6177     TIP3     H2       HT       0.417000        1.0080           0
     44686 WT3      6178     TIP3     OH2      OT      -0.834000       15.9994           0
     44687 WT3      6178     TIP3     H1       HT       0.417000        1.0080           0
     44688 WT3      6178     TIP3     H2       HT       0.417000        1.0080           0
     44689 WT3      6179     TIP3     OH2      OT      -0.834000       15.9994           0
     44690 WT3      6179     TIP3     H1       HT       0.417000        1.0080           0
     44691 WT3      6179     TIP3     H2       HT       0.417000        1.0080           0
     44692 WT3      6180     TIP3     OH2      OT      -0.834000       15.9994           0
     44693 WT3      6180     TIP3     H1       HT       0.417000        1.0080           0
     44694 WT3      6180     TIP3     H2       HT       0.417000        1.0080           0
     44695 WT3      6181     TIP3     OH2      OT      -0.834000       15.9994           0
     44696 WT3      6181     TIP3     H1       HT       0.417000        1.0080           0
     44697 WT3      6181     TIP3     H2       HT       0.417000        1.0080           0
     44698 WT3      6183     TIP3     OH2      OT      -0.834000       15.9994           0
     44699 WT3      6183     TIP3     H1       HT       0.417000        1.0080           0
     44700 WT3      6183     TIP3     H2       HT       0.417000        1.0080           0
     44701 WT3      6184     TIP3     OH2      OT      -0.834000       15.9994           0
     44702 WT3      6184     TIP3     H1       HT       0.417000        1.0080           0
     44703 WT3      6184     TIP3     H2       HT       0.417000        1.0080           0
     44704 WT3      6187     TIP3     OH2      OT      -0.834000       15.9994           0
     44705 WT3      6187     TIP3     H1       HT       0.417000        1.0080           0
     44706 WT3      6187     TIP3     H2       HT       0.417000        1.0080           0
     44707 WT3      6188     TIP3     OH2      OT      -0.834000       15.9994           0
     44708 WT3      6188     TIP3     H1       HT       0.417000        1.0080           0
     44709 WT3      6188     TIP3     H2       HT       0.417000        1.0080           0
     44710 WT3      6189     TIP3     OH2      OT      -0.834000       15.9994           0
     44711 WT3      6189     TIP3     H1       HT       0.417000        1.0080           0
     44712 WT3      6189     TIP3     H2       HT       0.417000        1.0080           0
     44713 WT3      6192     TIP3     OH2      OT      -0.834000       15.9994           0
     44714 WT3      6192     TIP3     H1       HT       0.417000        1.0080           0
     44715 WT3      6192     TIP3     H2       HT       0.417000        1.0080           0
     44716 WT3      6193     TIP3     OH2      OT      -0.834000       15.9994           0
     44717 WT3      6193     TIP3     H1       HT       0.417000        1.0080           0
     44718 WT3      6193     TIP3     H2       HT       0.417000        1.0080           0
     44719 WT3      6194     TIP3     OH2      OT      -0.834000       15.9994           0
     44720 WT3      6194     TIP3     H1       HT       0.417000        1.0080           0
     44721 WT3      6194     TIP3     H2       HT       0.417000        1.0080           0
     44722 WT3      6195     TIP3     OH2      OT      -0.834000       15.9994           0
     44723 WT3      6195     TIP3     H1       HT       0.417000        1.0080           0
     44724 WT3      6195     TIP3     H2       HT       0.417000        1.0080           0
     44725 WT3      6198     TIP3     OH2      OT      -0.834000       15.9994           0
     44726 WT3      6198     TIP3     H1       HT       0.417000        1.0080           0
     44727 WT3      6198     TIP3     H2       HT       0.417000        1.0080           0
     44728 WT3      6199     TIP3     OH2      OT      -0.834000       15.9994           0
     44729 WT3      6199     TIP3     H1       HT       0.417000        1.0080           0
     44730 WT3      6199     TIP3     H2       HT       0.417000        1.0080           0
     44731 WT3      6200     TIP3     OH2      OT      -0.834000       15.9994           0
     44732 WT3      6200     TIP3     H1       HT       0.417000        1.0080           0
     44733 WT3      6200     TIP3     H2       HT       0.417000        1.0080           0
     44734 WT3      6202     TIP3     OH2      OT      -0.834000       15.9994           0
     44735 WT3      6202     TIP3     H1       HT       0.417000        1.0080           0
     44736 WT3      6202     TIP3     H2       HT       0.417000        1.0080           0
     44737 WT3      6203     TIP3     OH2      OT      -0.834000       15.9994           0
     44738 WT3      6203     TIP3     H1       HT       0.417000        1.0080           0
     44739 WT3      6203     TIP3     H2       HT       0.417000        1.0080           0
     44740 WT3      6204     TIP3     OH2      OT      -0.834000       15.9994           0
     44741 WT3      6204     TIP3     H1       HT       0.417000        1.0080           0
     44742 WT3      6204     TIP3     H2       HT       0.417000        1.0080           0
     44743 WT3      6205     TIP3     OH2      OT      -0.834000       15.9994           0
     44744 WT3      6205     TIP3     H1       HT       0.417000        1.0080           0
     44745 WT3      6205     TIP3     H2       HT       0.417000        1.0080           0
     44746 WT3      6207     TIP3     OH2      OT      -0.834000       15.9994           0
     44747 WT3      6207     TIP3     H1       HT       0.417000        1.0080           0
     44748 WT3      6207     TIP3     H2       HT       0.417000        1.0080           0
     44749 WT3      6208     TIP3     OH2      OT      -0.834000       15.9994           0
     44750 WT3      6208     TIP3     H1       HT       0.417000        1.0080           0
     44751 WT3      6208     TIP3     H2       HT       0.417000        1.0080           0
     44752 WT3      6212     TIP3     OH2      OT      -0.834000       15.9994           0
     44753 WT3      6212     TIP3     H1       HT       0.417000        1.0080           0
     44754 WT3      6212     TIP3     H2       HT       0.417000        1.0080           0
     44755 WT3      6213     TIP3     OH2      OT      -0.834000       15.9994           0
     44756 WT3      6213     TIP3     H1       HT       0.417000        1.0080           0
     44757 WT3      6213     TIP3     H2       HT       0.417000        1.0080           0
     44758 WT3      6214     TIP3     OH2      OT      -0.834000       15.9994           0
     44759 WT3      6214     TIP3     H1       HT       0.417000        1.0080           0
     44760 WT3      6214     TIP3     H2       HT       0.417000        1.0080           0
     44761 WT3      6215     TIP3     OH2      OT      -0.834000       15.9994           0
     44762 WT3      6215     TIP3     H1       HT       0.417000        1.0080           0
     44763 WT3      6215     TIP3     H2       HT       0.417000        1.0080           0
     44764 WT3      6216     TIP3     OH2      OT      -0.834000       15.9994           0
     44765 WT3      6216     TIP3     H1       HT       0.417000        1.0080           0
     44766 WT3      6216     TIP3     H2       HT       0.417000        1.0080           0
     44767 WT3      6217     TIP3     OH2      OT      -0.834000       15.9994           0
     44768 WT3      6217     TIP3     H1       HT       0.417000        1.0080           0
     44769 WT3      6217     TIP3     H2       HT       0.417000        1.0080           0
     44770 WT3      6218     TIP3     OH2      OT      -0.834000       15.9994           0
     44771 WT3      6218     TIP3     H1       HT       0.417000        1.0080           0
     44772 WT3      6218     TIP3     H2       HT       0.417000        1.0080           0
     44773 WT3      6219     TIP3     OH2      OT      -0.834000       15.9994           0
     44774 WT3      6219     TIP3     H1       HT       0.417000        1.0080           0
     44775 WT3      6219     TIP3     H2       HT       0.417000        1.0080           0
     44776 WT3      6220     TIP3     OH2      OT      -0.834000       15.9994           0
     44777 WT3      6220     TIP3     H1       HT       0.417000        1.0080           0
     44778 WT3      6220     TIP3     H2       HT       0.417000        1.0080           0
     44779 WT3      6221     TIP3     OH2      OT      -0.834000       15.9994           0
     44780 WT3      6221     TIP3     H1       HT       0.417000        1.0080           0
     44781 WT3      6221     TIP3     H2       HT       0.417000        1.0080           0
     44782 WT3      6223     TIP3     OH2      OT      -0.834000       15.9994           0
     44783 WT3      6223     TIP3     H1       HT       0.417000        1.0080           0
     44784 WT3      6223     TIP3     H2       HT       0.417000        1.0080           0
     44785 WT3      6224     TIP3     OH2      OT      -0.834000       15.9994           0
     44786 WT3      6224     TIP3     H1       HT       0.417000        1.0080           0
     44787 WT3      6224     TIP3     H2       HT       0.417000        1.0080           0
     44788 WT3      6225     TIP3     OH2      OT      -0.834000       15.9994           0
     44789 WT3      6225     TIP3     H1       HT       0.417000        1.0080           0
     44790 WT3      6225     TIP3     H2       HT       0.417000        1.0080           0
     44791 WT3      6227     TIP3     OH2      OT      -0.834000       15.9994           0
     44792 WT3      6227     TIP3     H1       HT       0.417000        1.0080           0
     44793 WT3      6227     TIP3     H2       HT       0.417000        1.0080           0
     44794 WT3      6228     TIP3     OH2      OT      -0.834000       15.9994           0
     44795 WT3      6228     TIP3     H1       HT       0.417000        1.0080           0
     44796 WT3      6228     TIP3     H2       HT       0.417000        1.0080           0
     44797 WT3      6229     TIP3     OH2      OT      -0.834000       15.9994           0
     44798 WT3      6229     TIP3     H1       HT       0.417000        1.0080           0
     44799 WT3      6229     TIP3     H2       HT       0.417000        1.0080           0
     44800 WT3      6231     TIP3     OH2      OT      -0.834000       15.9994           0
     44801 WT3      6231     TIP3     H1       HT       0.417000        1.0080           0
     44802 WT3      6231     TIP3     H2       HT       0.417000        1.0080           0
     44803 WT3      6232     TIP3     OH2      OT      -0.834000       15.9994           0
     44804 WT3      6232     TIP3     H1       HT       0.417000        1.0080           0
     44805 WT3      6232     TIP3     H2       HT       0.417000        1.0080           0
     44806 WT3      6233     TIP3     OH2      OT      -0.834000       15.9994           0
     44807 WT3      6233     TIP3     H1       HT       0.417000        1.0080           0
     44808 WT3      6233     TIP3     H2       HT       0.417000        1.0080           0
     44809 WT3      6235     TIP3     OH2      OT      -0.834000       15.9994           0
     44810 WT3      6235     TIP3     H1       HT       0.417000        1.0080           0
     44811 WT3      6235     TIP3     H2       HT       0.417000        1.0080           0
     44812 WT3      6236     TIP3     OH2      OT      -0.834000       15.9994           0
     44813 WT3      6236     TIP3     H1       HT       0.417000        1.0080           0
     44814 WT3      6236     TIP3     H2       HT       0.417000        1.0080           0
     44815 WT3      6238     TIP3     OH2      OT      -0.834000       15.9994           0
     44816 WT3      6238     TIP3     H1       HT       0.417000        1.0080           0
     44817 WT3      6238     TIP3     H2       HT       0.417000        1.0080           0
     44818 WT3      6240     TIP3     OH2      OT      -0.834000       15.9994           0
     44819 WT3      6240     TIP3     H1       HT       0.417000        1.0080           0
     44820 WT3      6240     TIP3     H2       HT       0.417000        1.0080           0
     44821 WT3      6241     TIP3     OH2      OT      -0.834000       15.9994           0
     44822 WT3      6241     TIP3     H1       HT       0.417000        1.0080           0
     44823 WT3      6241     TIP3     H2       HT       0.417000        1.0080           0
     44824 WT3      6242     TIP3     OH2      OT      -0.834000       15.9994           0
     44825 WT3      6242     TIP3     H1       HT       0.417000        1.0080           0
     44826 WT3      6242     TIP3     H2       HT       0.417000        1.0080           0
     44827 WT3      6243     TIP3     OH2      OT      -0.834000       15.9994           0
     44828 WT3      6243     TIP3     H1       HT       0.417000        1.0080           0
     44829 WT3      6243     TIP3     H2       HT       0.417000        1.0080           0
     44830 WT3      6245     TIP3     OH2      OT      -0.834000       15.9994           0
     44831 WT3      6245     TIP3     H1       HT       0.417000        1.0080           0
     44832 WT3      6245     TIP3     H2       HT       0.417000        1.0080           0
     44833 WT3      6246     TIP3     OH2      OT      -0.834000       15.9994           0
     44834 WT3      6246     TIP3     H1       HT       0.417000        1.0080           0
     44835 WT3      6246     TIP3     H2       HT       0.417000        1.0080           0
     44836 WT3      6247     TIP3     OH2      OT      -0.834000       15.9994           0
     44837 WT3      6247     TIP3     H1       HT       0.417000        1.0080           0
     44838 WT3      6247     TIP3     H2       HT       0.417000        1.0080           0
     44839 WT3      6248     TIP3     OH2      OT      -0.834000       15.9994           0
     44840 WT3      6248     TIP3     H1       HT       0.417000        1.0080           0
     44841 WT3      6248     TIP3     H2       HT       0.417000        1.0080           0
     44842 WT3      6249     TIP3     OH2      OT      -0.834000       15.9994           0
     44843 WT3      6249     TIP3     H1       HT       0.417000        1.0080           0
     44844 WT3      6249     TIP3     H2       HT       0.417000        1.0080           0
     44845 WT3      6250     TIP3     OH2      OT      -0.834000       15.9994           0
     44846 WT3      6250     TIP3     H1       HT       0.417000        1.0080           0
     44847 WT3      6250     TIP3     H2       HT       0.417000        1.0080           0
     44848 WT3      6251     TIP3     OH2      OT      -0.834000       15.9994           0
     44849 WT3      6251     TIP3     H1       HT       0.417000        1.0080           0
     44850 WT3      6251     TIP3     H2       HT       0.417000        1.0080           0
     44851 WT3      6252     TIP3     OH2      OT      -0.834000       15.9994           0
     44852 WT3      6252     TIP3     H1       HT       0.417000        1.0080           0
     44853 WT3      6252     TIP3     H2       HT       0.417000        1.0080           0
     44854 WT3      6253     TIP3     OH2      OT      -0.834000       15.9994           0
     44855 WT3      6253     TIP3     H1       HT       0.417000        1.0080           0
     44856 WT3      6253     TIP3     H2       HT       0.417000        1.0080           0
     44857 WT3      6254     TIP3     OH2      OT      -0.834000       15.9994           0
     44858 WT3      6254     TIP3     H1       HT       0.417000        1.0080           0
     44859 WT3      6254     TIP3     H2       HT       0.417000        1.0080           0
     44860 WT3      6255     TIP3     OH2      OT      -0.834000       15.9994           0
     44861 WT3      6255     TIP3     H1       HT       0.417000        1.0080           0
     44862 WT3      6255     TIP3     H2       HT       0.417000        1.0080           0
     44863 WT3      6256     TIP3     OH2      OT      -0.834000       15.9994           0
     44864 WT3      6256     TIP3     H1       HT       0.417000        1.0080           0
     44865 WT3      6256     TIP3     H2       HT       0.417000        1.0080           0
     44866 WT3      6257     TIP3     OH2      OT      -0.834000       15.9994           0
     44867 WT3      6257     TIP3     H1       HT       0.417000        1.0080           0
     44868 WT3      6257     TIP3     H2       HT       0.417000        1.0080           0
     44869 WT3      6258     TIP3     OH2      OT      -0.834000       15.9994           0
     44870 WT3      6258     TIP3     H1       HT       0.417000        1.0080           0
     44871 WT3      6258     TIP3     H2       HT       0.417000        1.0080           0
     44872 WT3      6260     TIP3     OH2      OT      -0.834000       15.9994           0
     44873 WT3      6260     TIP3     H1       HT       0.417000        1.0080           0
     44874 WT3      6260     TIP3     H2       HT       0.417000        1.0080           0
     44875 WT3      6261     TIP3     OH2      OT      -0.834000       15.9994           0
     44876 WT3      6261     TIP3     H1       HT       0.417000        1.0080           0
     44877 WT3      6261     TIP3     H2       HT       0.417000        1.0080           0
     44878 WT3      6263     TIP3     OH2      OT      -0.834000       15.9994           0
     44879 WT3      6263     TIP3     H1       HT       0.417000        1.0080           0
     44880 WT3      6263     TIP3     H2       HT       0.417000        1.0080           0
     44881 WT3      6264     TIP3     OH2      OT      -0.834000       15.9994           0
     44882 WT3      6264     TIP3     H1       HT       0.417000        1.0080           0
     44883 WT3      6264     TIP3     H2       HT       0.417000        1.0080           0
     44884 WT3      6265     TIP3     OH2      OT      -0.834000       15.9994           0
     44885 WT3      6265     TIP3     H1       HT       0.417000        1.0080           0
     44886 WT3      6265     TIP3     H2       HT       0.417000        1.0080           0
     44887 WT3      6266     TIP3     OH2      OT      -0.834000       15.9994           0
     44888 WT3      6266     TIP3     H1       HT       0.417000        1.0080           0
     44889 WT3      6266     TIP3     H2       HT       0.417000        1.0080           0
     44890 WT3      6267     TIP3     OH2      OT      -0.834000       15.9994           0
     44891 WT3      6267     TIP3     H1       HT       0.417000        1.0080           0
     44892 WT3      6267     TIP3     H2       HT       0.417000        1.0080           0
     44893 WT3      6268     TIP3     OH2      OT      -0.834000       15.9994           0
     44894 WT3      6268     TIP3     H1       HT       0.417000        1.0080           0
     44895 WT3      6268     TIP3     H2       HT       0.417000        1.0080           0
     44896 WT3      6269     TIP3     OH2      OT      -0.834000       15.9994           0
     44897 WT3      6269     TIP3     H1       HT       0.417000        1.0080           0
     44898 WT3      6269     TIP3     H2       HT       0.417000        1.0080           0
     44899 WT3      6270     TIP3     OH2      OT      -0.834000       15.9994           0
     44900 WT3      6270     TIP3     H1       HT       0.417000        1.0080           0
     44901 WT3      6270     TIP3     H2       HT       0.417000        1.0080           0
     44902 WT3      6271     TIP3     OH2      OT      -0.834000       15.9994           0
     44903 WT3      6271     TIP3     H1       HT       0.417000        1.0080           0
     44904 WT3      6271     TIP3     H2       HT       0.417000        1.0080           0
     44905 WT3      6273     TIP3     OH2      OT      -0.834000       15.9994           0
     44906 WT3      6273     TIP3     H1       HT       0.417000        1.0080           0
     44907 WT3      6273     TIP3     H2       HT       0.417000        1.0080           0
     44908 WT3      6274     TIP3     OH2      OT      -0.834000       15.9994           0
     44909 WT3      6274     TIP3     H1       HT       0.417000        1.0080           0
     44910 WT3      6274     TIP3     H2       HT       0.417000        1.0080           0
     44911 WT3      6275     TIP3     OH2      OT      -0.834000       15.9994           0
     44912 WT3      6275     TIP3     H1       HT       0.417000        1.0080           0
     44913 WT3      6275     TIP3     H2       HT       0.417000        1.0080           0
     44914 WT3      6276     TIP3     OH2      OT      -0.834000       15.9994           0
     44915 WT3      6276     TIP3     H1       HT       0.417000        1.0080           0
     44916 WT3      6276     TIP3     H2       HT       0.417000        1.0080           0
     44917 WT3      6278     TIP3     OH2      OT      -0.834000       15.9994           0
     44918 WT3      6278     TIP3     H1       HT       0.417000        1.0080           0
     44919 WT3      6278     TIP3     H2       HT       0.417000        1.0080           0
     44920 WT3      6280     TIP3     OH2      OT      -0.834000       15.9994           0
     44921 WT3      6280     TIP3     H1       HT       0.417000        1.0080           0
     44922 WT3      6280     TIP3     H2       HT       0.417000        1.0080           0
     44923 WT3      6281     TIP3     OH2      OT      -0.834000       15.9994           0
     44924 WT3      6281     TIP3     H1       HT       0.417000        1.0080           0
     44925 WT3      6281     TIP3     H2       HT       0.417000        1.0080           0
     44926 WT3      6282     TIP3     OH2      OT      -0.834000       15.9994           0
     44927 WT3      6282     TIP3     H1       HT       0.417000        1.0080           0
     44928 WT3      6282     TIP3     H2       HT       0.417000        1.0080           0
     44929 WT3      6283     TIP3     OH2      OT      -0.834000       15.9994           0
     44930 WT3      6283     TIP3     H1       HT       0.417000        1.0080           0
     44931 WT3      6283     TIP3     H2       HT       0.417000        1.0080           0
     44932 WT3      6284     TIP3     OH2      OT      -0.834000       15.9994           0
     44933 WT3      6284     TIP3     H1       HT       0.417000        1.0080           0
     44934 WT3      6284     TIP3     H2       HT       0.417000        1.0080           0
     44935 WT3      6285     TIP3     OH2      OT      -0.834000       15.9994           0
     44936 WT3      6285     TIP3     H1       HT       0.417000        1.0080           0
     44937 WT3      6285     TIP3     H2       HT       0.417000        1.0080           0
     44938 WT3      6286     TIP3     OH2      OT      -0.834000       15.9994           0
     44939 WT3      6286     TIP3     H1       HT       0.417000        1.0080           0
     44940 WT3      6286     TIP3     H2       HT       0.417000        1.0080           0
     44941 WT3      6287     TIP3     OH2      OT      -0.834000       15.9994           0
     44942 WT3      6287     TIP3     H1       HT       0.417000        1.0080           0
     44943 WT3      6287     TIP3     H2       HT       0.417000        1.0080           0
     44944 WT3      6288     TIP3     OH2      OT      -0.834000       15.9994           0
     44945 WT3      6288     TIP3     H1       HT       0.417000        1.0080           0
     44946 WT3      6288     TIP3     H2       HT       0.417000        1.0080           0
     44947 WT3      6289     TIP3     OH2      OT      -0.834000       15.9994           0
     44948 WT3      6289     TIP3     H1       HT       0.417000        1.0080           0
     44949 WT3      6289     TIP3     H2       HT       0.417000        1.0080           0
     44950 WT3      6290     TIP3     OH2      OT      -0.834000       15.9994           0
     44951 WT3      6290     TIP3     H1       HT       0.417000        1.0080           0
     44952 WT3      6290     TIP3     H2       HT       0.417000        1.0080           0
     44953 WT3      6291     TIP3     OH2      OT      -0.834000       15.9994           0
     44954 WT3      6291     TIP3     H1       HT       0.417000        1.0080           0
     44955 WT3      6291     TIP3     H2       HT       0.417000        1.0080           0
     44956 WT3      6293     TIP3     OH2      OT      -0.834000       15.9994           0
     44957 WT3      6293     TIP3     H1       HT       0.417000        1.0080           0
     44958 WT3      6293     TIP3     H2       HT       0.417000        1.0080           0
     44959 WT3      6295     TIP3     OH2      OT      -0.834000       15.9994           0
     44960 WT3      6295     TIP3     H1       HT       0.417000        1.0080           0
     44961 WT3      6295     TIP3     H2       HT       0.417000        1.0080           0
     44962 WT3      6296     TIP3     OH2      OT      -0.834000       15.9994           0
     44963 WT3      6296     TIP3     H1       HT       0.417000        1.0080           0
     44964 WT3      6296     TIP3     H2       HT       0.417000        1.0080           0
     44965 WT3      6297     TIP3     OH2      OT      -0.834000       15.9994           0
     44966 WT3      6297     TIP3     H1       HT       0.417000        1.0080           0
     44967 WT3      6297     TIP3     H2       HT       0.417000        1.0080           0
     44968 WT3      6298     TIP3     OH2      OT      -0.834000       15.9994           0
     44969 WT3      6298     TIP3     H1       HT       0.417000        1.0080           0
     44970 WT3      6298     TIP3     H2       HT       0.417000        1.0080           0
     44971 WT3      6299     TIP3     OH2      OT      -0.834000       15.9994           0
     44972 WT3      6299     TIP3     H1       HT       0.417000        1.0080           0
     44973 WT3      6299     TIP3     H2       HT       0.417000        1.0080           0
     44974 WT3      6301     TIP3     OH2      OT      -0.834000       15.9994           0
     44975 WT3      6301     TIP3     H1       HT       0.417000        1.0080           0
     44976 WT3      6301     TIP3     H2       HT       0.417000        1.0080           0
     44977 WT3      6303     TIP3     OH2      OT      -0.834000       15.9994           0
     44978 WT3      6303     TIP3     H1       HT       0.417000        1.0080           0
     44979 WT3      6303     TIP3     H2       HT       0.417000        1.0080           0
     44980 WT3      6304     TIP3     OH2      OT      -0.834000       15.9994           0
     44981 WT3      6304     TIP3     H1       HT       0.417000        1.0080           0
     44982 WT3      6304     TIP3     H2       HT       0.417000        1.0080           0
     44983 WT3      6307     TIP3     OH2      OT      -0.834000       15.9994           0
     44984 WT3      6307     TIP3     H1       HT       0.417000        1.0080           0
     44985 WT3      6307     TIP3     H2       HT       0.417000        1.0080           0
     44986 WT3      6308     TIP3     OH2      OT      -0.834000       15.9994           0
     44987 WT3      6308     TIP3     H1       HT       0.417000        1.0080           0
     44988 WT3      6308     TIP3     H2       HT       0.417000        1.0080           0
     44989 WT3      6309     TIP3     OH2      OT      -0.834000       15.9994           0
     44990 WT3      6309     TIP3     H1       HT       0.417000        1.0080           0
     44991 WT3      6309     TIP3     H2       HT       0.417000        1.0080           0
     44992 WT3      6310     TIP3     OH2      OT      -0.834000       15.9994           0
     44993 WT3      6310     TIP3     H1       HT       0.417000        1.0080           0
     44994 WT3      6310     TIP3     H2       HT       0.417000        1.0080           0
     44995 WT3      6311     TIP3     OH2      OT      -0.834000       15.9994           0
     44996 WT3      6311     TIP3     H1       HT       0.417000        1.0080           0
     44997 WT3      6311     TIP3     H2       HT       0.417000        1.0080           0
     44998 WT3      6312     TIP3     OH2      OT      -0.834000       15.9994           0
     44999 WT3      6312     TIP3     H1       HT       0.417000        1.0080           0
     45000 WT3      6312     TIP3     H2       HT       0.417000        1.0080           0
     45001 WT3      6315     TIP3     OH2      OT      -0.834000       15.9994           0
     45002 WT3      6315     TIP3     H1       HT       0.417000        1.0080           0
     45003 WT3      6315     TIP3     H2       HT       0.417000        1.0080           0
     45004 WT3      6316     TIP3     OH2      OT      -0.834000       15.9994           0
     45005 WT3      6316     TIP3     H1       HT       0.417000        1.0080           0
     45006 WT3      6316     TIP3     H2       HT       0.417000        1.0080           0
     45007 WT3      6317     TIP3     OH2      OT      -0.834000       15.9994           0
     45008 WT3      6317     TIP3     H1       HT       0.417000        1.0080           0
     45009 WT3      6317     TIP3     H2       HT       0.417000        1.0080           0
     45010 WT3      6318     TIP3     OH2      OT      -0.834000       15.9994           0
     45011 WT3      6318     TIP3     H1       HT       0.417000        1.0080           0
     45012 WT3      6318     TIP3     H2       HT       0.417000        1.0080           0
     45013 WT3      6319     TIP3     OH2      OT      -0.834000       15.9994           0
     45014 WT3      6319     TIP3     H1       HT       0.417000        1.0080           0
     45015 WT3      6319     TIP3     H2       HT       0.417000        1.0080           0
     45016 WT3      6320     TIP3     OH2      OT      -0.834000       15.9994           0
     45017 WT3      6320     TIP3     H1       HT       0.417000        1.0080           0
     45018 WT3      6320     TIP3     H2       HT       0.417000        1.0080           0
     45019 WT3      6321     TIP3     OH2      OT      -0.834000       15.9994           0
     45020 WT3      6321     TIP3     H1       HT       0.417000        1.0080           0
     45021 WT3      6321     TIP3     H2       HT       0.417000        1.0080           0
     45022 WT3      6325     TIP3     OH2      OT      -0.834000       15.9994           0
     45023 WT3      6325     TIP3     H1       HT       0.417000        1.0080           0
     45024 WT3      6325     TIP3     H2       HT       0.417000        1.0080           0
     45025 WT3      6327     TIP3     OH2      OT      -0.834000       15.9994           0
     45026 WT3      6327     TIP3     H1       HT       0.417000        1.0080           0
     45027 WT3      6327     TIP3     H2       HT       0.417000        1.0080           0
     45028 WT3      6328     TIP3     OH2      OT      -0.834000       15.9994           0
     45029 WT3      6328     TIP3     H1       HT       0.417000        1.0080           0
     45030 WT3      6328     TIP3     H2       HT       0.417000        1.0080           0
     45031 WT3      6329     TIP3     OH2      OT      -0.834000       15.9994           0
     45032 WT3      6329     TIP3     H1       HT       0.417000        1.0080           0
     45033 WT3      6329     TIP3     H2       HT       0.417000        1.0080           0
     45034 WT3      6330     TIP3     OH2      OT      -0.834000       15.9994           0
     45035 WT3      6330     TIP3     H1       HT       0.417000        1.0080           0
     45036 WT3      6330     TIP3     H2       HT       0.417000        1.0080           0
     45037 WT3      6331     TIP3     OH2      OT      -0.834000       15.9994           0
     45038 WT3      6331     TIP3     H1       HT       0.417000        1.0080           0
     45039 WT3      6331     TIP3     H2       HT       0.417000        1.0080           0
     45040 WT3      6332     TIP3     OH2      OT      -0.834000       15.9994           0
     45041 WT3      6332     TIP3     H1       HT       0.417000        1.0080           0
     45042 WT3      6332     TIP3     H2       HT       0.417000        1.0080           0
     45043 WT3      6333     TIP3     OH2      OT      -0.834000       15.9994           0
     45044 WT3      6333     TIP3     H1       HT       0.417000        1.0080           0
     45045 WT3      6333     TIP3     H2       HT       0.417000        1.0080           0
     45046 WT3      6334     TIP3     OH2      OT      -0.834000       15.9994           0
     45047 WT3      6334     TIP3     H1       HT       0.417000        1.0080           0
     45048 WT3      6334     TIP3     H2       HT       0.417000        1.0080           0
     45049 WT3      6336     TIP3     OH2      OT      -0.834000       15.9994           0
     45050 WT3      6336     TIP3     H1       HT       0.417000        1.0080           0
     45051 WT3      6336     TIP3     H2       HT       0.417000        1.0080           0
     45052 WT3      6339     TIP3     OH2      OT      -0.834000       15.9994           0
     45053 WT3      6339     TIP3     H1       HT       0.417000        1.0080           0
     45054 WT3      6339     TIP3     H2       HT       0.417000        1.0080           0
     45055 WT3      6340     TIP3     OH2      OT      -0.834000       15.9994           0
     45056 WT3      6340     TIP3     H1       HT       0.417000        1.0080           0
     45057 WT3      6340     TIP3     H2       HT       0.417000        1.0080           0
     45058 WT3      6344     TIP3     OH2      OT      -0.834000       15.9994           0
     45059 WT3      6344     TIP3     H1       HT       0.417000        1.0080           0
     45060 WT3      6344     TIP3     H2       HT       0.417000        1.0080           0
     45061 WT3      6345     TIP3     OH2      OT      -0.834000       15.9994           0
     45062 WT3      6345     TIP3     H1       HT       0.417000        1.0080           0
     45063 WT3      6345     TIP3     H2       HT       0.417000        1.0080           0
     45064 WT3      6346     TIP3     OH2      OT      -0.834000       15.9994           0
     45065 WT3      6346     TIP3     H1       HT       0.417000        1.0080           0
     45066 WT3      6346     TIP3     H2       HT       0.417000        1.0080           0
     45067 WT3      6349     TIP3     OH2      OT      -0.834000       15.9994           0
     45068 WT3      6349     TIP3     H1       HT       0.417000        1.0080           0
     45069 WT3      6349     TIP3     H2       HT       0.417000        1.0080           0
     45070 WT3      6357     TIP3     OH2      OT      -0.834000       15.9994           0
     45071 WT3      6357     TIP3     H1       HT       0.417000        1.0080           0
     45072 WT3      6357     TIP3     H2       HT       0.417000        1.0080           0
     45073 WT3      6359     TIP3     OH2      OT      -0.834000       15.9994           0
     45074 WT3      6359     TIP3     H1       HT       0.417000        1.0080           0
     45075 WT3      6359     TIP3     H2       HT       0.417000        1.0080           0
     45076 WT3      6360     TIP3     OH2      OT      -0.834000       15.9994           0
     45077 WT3      6360     TIP3     H1       HT       0.417000        1.0080           0
     45078 WT3      6360     TIP3     H2       HT       0.417000        1.0080           0
     45079 WT3      6361     TIP3     OH2      OT      -0.834000       15.9994           0
     45080 WT3      6361     TIP3     H1       HT       0.417000        1.0080           0
     45081 WT3      6361     TIP3     H2       HT       0.417000        1.0080           0
     45082 WT3      6364     TIP3     OH2      OT      -0.834000       15.9994           0
     45083 WT3      6364     TIP3     H1       HT       0.417000        1.0080           0
     45084 WT3      6364     TIP3     H2       HT       0.417000        1.0080           0
     45085 WT3      6369     TIP3     OH2      OT      -0.834000       15.9994           0
     45086 WT3      6369     TIP3     H1       HT       0.417000        1.0080           0
     45087 WT3      6369     TIP3     H2       HT       0.417000        1.0080           0
     45088 WT3      6370     TIP3     OH2      OT      -0.834000       15.9994           0
     45089 WT3      6370     TIP3     H1       HT       0.417000        1.0080           0
     45090 WT3      6370     TIP3     H2       HT       0.417000        1.0080           0
     45091 WT3      6374     TIP3     OH2      OT      -0.834000       15.9994           0
     45092 WT3      6374     TIP3     H1       HT       0.417000        1.0080           0
     45093 WT3      6374     TIP3     H2       HT       0.417000        1.0080           0
     45094 WT3      6381     TIP3     OH2      OT      -0.834000       15.9994           0
     45095 WT3      6381     TIP3     H1       HT       0.417000        1.0080           0
     45096 WT3      6381     TIP3     H2       HT       0.417000        1.0080           0
     45097 WT3      6384     TIP3     OH2      OT      -0.834000       15.9994           0
     45098 WT3      6384     TIP3     H1       HT       0.417000        1.0080           0
     45099 WT3      6384     TIP3     H2       HT       0.417000        1.0080           0
     45100 WT3      6390     TIP3     OH2      OT      -0.834000       15.9994           0
     45101 WT3      6390     TIP3     H1       HT       0.417000        1.0080           0
     45102 WT3      6390     TIP3     H2       HT       0.417000        1.0080           0
     45103 WT3      6411     TIP3     OH2      OT      -0.834000       15.9994           0
     45104 WT3      6411     TIP3     H1       HT       0.417000        1.0080           0
     45105 WT3      6411     TIP3     H2       HT       0.417000        1.0080           0
     45106 WT3      6420     TIP3     OH2      OT      -0.834000       15.9994           0
     45107 WT3      6420     TIP3     H1       HT       0.417000        1.0080           0
     45108 WT3      6420     TIP3     H2       HT       0.417000        1.0080           0
     45109 WT3      6424     TIP3     OH2      OT      -0.834000       15.9994           0
     45110 WT3      6424     TIP3     H1       HT       0.417000        1.0080           0
     45111 WT3      6424     TIP3     H2       HT       0.417000        1.0080           0
     45112 WT3      6536     TIP3     OH2      OT      -0.834000       15.9994           0
     45113 WT3      6536     TIP3     H1       HT       0.417000        1.0080           0
     45114 WT3      6536     TIP3     H2       HT       0.417000        1.0080           0
     45115 WT3      6551     TIP3     OH2      OT      -0.834000       15.9994           0
     45116 WT3      6551     TIP3     H1       HT       0.417000        1.0080           0
     45117 WT3      6551     TIP3     H2       HT       0.417000        1.0080           0
     45118 WT3      6555     TIP3     OH2      OT      -0.834000       15.9994           0
     45119 WT3      6555     TIP3     H1       HT       0.417000        1.0080           0
     45120 WT3      6555     TIP3     H2       HT       0.417000        1.0080           0
     45121 WT3      6561     TIP3     OH2      OT      -0.834000       15.9994           0
     45122 WT3      6561     TIP3     H1       HT       0.417000        1.0080           0
     45123 WT3      6561     TIP3     H2       HT       0.417000        1.0080           0
     45124 WT3      6569     TIP3     OH2      OT      -0.834000       15.9994           0
     45125 WT3      6569     TIP3     H1       HT       0.417000        1.0080           0
     45126 WT3      6569     TIP3     H2       HT       0.417000        1.0080           0
     45127 WT3      6571     TIP3     OH2      OT      -0.834000       15.9994           0
     45128 WT3      6571     TIP3     H1       HT       0.417000        1.0080           0
     45129 WT3      6571     TIP3     H2       HT       0.417000        1.0080           0
     45130 WT3      6575     TIP3     OH2      OT      -0.834000       15.9994           0
     45131 WT3      6575     TIP3     H1       HT       0.417000        1.0080           0
     45132 WT3      6575     TIP3     H2       HT       0.417000        1.0080           0
     45133 WT3      6577     TIP3     OH2      OT      -0.834000       15.9994           0
     45134 WT3      6577     TIP3     H1       HT       0.417000        1.0080           0
     45135 WT3      6577     TIP3     H2       HT       0.417000        1.0080           0
     45136 WT3      6578     TIP3     OH2      OT      -0.834000       15.9994           0
     45137 WT3      6578     TIP3     H1       HT       0.417000        1.0080           0
     45138 WT3      6578     TIP3     H2       HT       0.417000        1.0080           0
     45139 WT3      6579     TIP3     OH2      OT      -0.834000       15.9994           0
     45140 WT3      6579     TIP3     H1       HT       0.417000        1.0080           0
     45141 WT3      6579     TIP3     H2       HT       0.417000        1.0080           0
     45142 WT3      6583     TIP3     OH2      OT      -0.834000       15.9994           0
     45143 WT3      6583     TIP3     H1       HT       0.417000        1.0080           0
     45144 WT3      6583     TIP3     H2       HT       0.417000        1.0080           0
     45145 WT3      6588     TIP3     OH2      OT      -0.834000       15.9994           0
     45146 WT3      6588     TIP3     H1       HT       0.417000        1.0080           0
     45147 WT3      6588     TIP3     H2       HT       0.417000        1.0080           0
     45148 WT3      6591     TIP3     OH2      OT      -0.834000       15.9994           0
     45149 WT3      6591     TIP3     H1       HT       0.417000        1.0080           0
     45150 WT3      6591     TIP3     H2       HT       0.417000        1.0080           0
     45151 WT3      6592     TIP3     OH2      OT      -0.834000       15.9994           0
     45152 WT3      6592     TIP3     H1       HT       0.417000        1.0080           0
     45153 WT3      6592     TIP3     H2       HT       0.417000        1.0080           0
     45154 WT3      6595     TIP3     OH2      OT      -0.834000       15.9994           0
     45155 WT3      6595     TIP3     H1       HT       0.417000        1.0080           0
     45156 WT3      6595     TIP3     H2       HT       0.417000        1.0080           0
     45157 WT3      6597     TIP3     OH2      OT      -0.834000       15.9994           0
     45158 WT3      6597     TIP3     H1       HT       0.417000        1.0080           0
     45159 WT3      6597     TIP3     H2       HT       0.417000        1.0080           0
     45160 WT3      6601     TIP3     OH2      OT      -0.834000       15.9994           0
     45161 WT3      6601     TIP3     H1       HT       0.417000        1.0080           0
     45162 WT3      6601     TIP3     H2       HT       0.417000        1.0080           0
     45163 WT3      6602     TIP3     OH2      OT      -0.834000       15.9994           0
     45164 WT3      6602     TIP3     H1       HT       0.417000        1.0080           0
     45165 WT3      6602     TIP3     H2       HT       0.417000        1.0080           0
     45166 WT3      6603     TIP3     OH2      OT      -0.834000       15.9994           0
     45167 WT3      6603     TIP3     H1       HT       0.417000        1.0080           0
     45168 WT3      6603     TIP3     H2       HT       0.417000        1.0080           0
     45169 WT3      6604     TIP3     OH2      OT      -0.834000       15.9994           0
     45170 WT3      6604     TIP3     H1       HT       0.417000        1.0080           0
     45171 WT3      6604     TIP3     H2       HT       0.417000        1.0080           0
     45172 WT3      6606     TIP3     OH2      OT      -0.834000       15.9994           0
     45173 WT3      6606     TIP3     H1       HT       0.417000        1.0080           0
     45174 WT3      6606     TIP3     H2       HT       0.417000        1.0080           0
     45175 WT3      6613     TIP3     OH2      OT      -0.834000       15.9994           0
     45176 WT3      6613     TIP3     H1       HT       0.417000        1.0080           0
     45177 WT3      6613     TIP3     H2       HT       0.417000        1.0080           0
     45178 WT3      6614     TIP3     OH2      OT      -0.834000       15.9994           0
     45179 WT3      6614     TIP3     H1       HT       0.417000        1.0080           0
     45180 WT3      6614     TIP3     H2       HT       0.417000        1.0080           0
     45181 WT3      6615     TIP3     OH2      OT      -0.834000       15.9994           0
     45182 WT3      6615     TIP3     H1       HT       0.417000        1.0080           0
     45183 WT3      6615     TIP3     H2       HT       0.417000        1.0080           0
     45184 WT3      6616     TIP3     OH2      OT      -0.834000       15.9994           0
     45185 WT3      6616     TIP3     H1       HT       0.417000        1.0080           0
     45186 WT3      6616     TIP3     H2       HT       0.417000        1.0080           0
     45187 WT3      6618     TIP3     OH2      OT      -0.834000       15.9994           0
     45188 WT3      6618     TIP3     H1       HT       0.417000        1.0080           0
     45189 WT3      6618     TIP3     H2       HT       0.417000        1.0080           0
     45190 WT3      6620     TIP3     OH2      OT      -0.834000       15.9994           0
     45191 WT3      6620     TIP3     H1       HT       0.417000        1.0080           0
     45192 WT3      6620     TIP3     H2       HT       0.417000        1.0080           0
     45193 WT3      6621     TIP3     OH2      OT      -0.834000       15.9994           0
     45194 WT3      6621     TIP3     H1       HT       0.417000        1.0080           0
     45195 WT3      6621     TIP3     H2       HT       0.417000        1.0080           0
     45196 WT3      6622     TIP3     OH2      OT      -0.834000       15.9994           0
     45197 WT3      6622     TIP3     H1       HT       0.417000        1.0080           0
     45198 WT3      6622     TIP3     H2       HT       0.417000        1.0080           0
     45199 WT3      6623     TIP3     OH2      OT      -0.834000       15.9994           0
     45200 WT3      6623     TIP3     H1       HT       0.417000        1.0080           0
     45201 WT3      6623     TIP3     H2       HT       0.417000        1.0080           0
     45202 WT3      6625     TIP3     OH2      OT      -0.834000       15.9994           0
     45203 WT3      6625     TIP3     H1       HT       0.417000        1.0080           0
     45204 WT3      6625     TIP3     H2       HT       0.417000        1.0080           0
     45205 WT3      6627     TIP3     OH2      OT      -0.834000       15.9994           0
     45206 WT3      6627     TIP3     H1       HT       0.417000        1.0080           0
     45207 WT3      6627     TIP3     H2       HT       0.417000        1.0080           0
     45208 WT3      6628     TIP3     OH2      OT      -0.834000       15.9994           0
     45209 WT3      6628     TIP3     H1       HT       0.417000        1.0080           0
     45210 WT3      6628     TIP3     H2       HT       0.417000        1.0080           0
     45211 WT3      6629     TIP3     OH2      OT      -0.834000       15.9994           0
     45212 WT3      6629     TIP3     H1       HT       0.417000        1.0080           0
     45213 WT3      6629     TIP3     H2       HT       0.417000        1.0080           0
     45214 WT3      6632     TIP3     OH2      OT      -0.834000       15.9994           0
     45215 WT3      6632     TIP3     H1       HT       0.417000        1.0080           0
     45216 WT3      6632     TIP3     H2       HT       0.417000        1.0080           0
     45217 WT3      6634     TIP3     OH2      OT      -0.834000       15.9994           0
     45218 WT3      6634     TIP3     H1       HT       0.417000        1.0080           0
     45219 WT3      6634     TIP3     H2       HT       0.417000        1.0080           0
     45220 WT3      6637     TIP3     OH2      OT      -0.834000       15.9994           0
     45221 WT3      6637     TIP3     H1       HT       0.417000        1.0080           0
     45222 WT3      6637     TIP3     H2       HT       0.417000        1.0080           0
     45223 WT3      6639     TIP3     OH2      OT      -0.834000       15.9994           0
     45224 WT3      6639     TIP3     H1       HT       0.417000        1.0080           0
     45225 WT3      6639     TIP3     H2       HT       0.417000        1.0080           0
     45226 WT3      6640     TIP3     OH2      OT      -0.834000       15.9994           0
     45227 WT3      6640     TIP3     H1       HT       0.417000        1.0080           0
     45228 WT3      6640     TIP3     H2       HT       0.417000        1.0080           0
     45229 WT3      6641     TIP3     OH2      OT      -0.834000       15.9994           0
     45230 WT3      6641     TIP3     H1       HT       0.417000        1.0080           0
     45231 WT3      6641     TIP3     H2       HT       0.417000        1.0080           0
     45232 WT3      6643     TIP3     OH2      OT      -0.834000       15.9994           0
     45233 WT3      6643     TIP3     H1       HT       0.417000        1.0080           0
     45234 WT3      6643     TIP3     H2       HT       0.417000        1.0080           0
     45235 WT3      6644     TIP3     OH2      OT      -0.834000       15.9994           0
     45236 WT3      6644     TIP3     H1       HT       0.417000        1.0080           0
     45237 WT3      6644     TIP3     H2       HT       0.417000        1.0080           0
     45238 WT3      6645     TIP3     OH2      OT      -0.834000       15.9994           0
     45239 WT3      6645     TIP3     H1       HT       0.417000        1.0080           0
     45240 WT3      6645     TIP3     H2       HT       0.417000        1.0080           0
     45241 WT3      6647     TIP3     OH2      OT      -0.834000       15.9994           0
     45242 WT3      6647     TIP3     H1       HT       0.417000        1.0080           0
     45243 WT3      6647     TIP3     H2       HT       0.417000        1.0080           0
     45244 WT3      6648     TIP3     OH2      OT      -0.834000       15.9994           0
     45245 WT3      6648     TIP3     H1       HT       0.417000        1.0080           0
     45246 WT3      6648     TIP3     H2       HT       0.417000        1.0080           0
     45247 WT3      6649     TIP3     OH2      OT      -0.834000       15.9994           0
     45248 WT3      6649     TIP3     H1       HT       0.417000        1.0080           0
     45249 WT3      6649     TIP3     H2       HT       0.417000        1.0080           0
     45250 WT3      6650     TIP3     OH2      OT      -0.834000       15.9994           0
     45251 WT3      6650     TIP3     H1       HT       0.417000        1.0080           0
     45252 WT3      6650     TIP3     H2       HT       0.417000        1.0080           0
     45253 WT3      6651     TIP3     OH2      OT      -0.834000       15.9994           0
     45254 WT3      6651     TIP3     H1       HT       0.417000        1.0080           0
     45255 WT3      6651     TIP3     H2       HT       0.417000        1.0080           0
     45256 WT3      6652     TIP3     OH2      OT      -0.834000       15.9994           0
     45257 WT3      6652     TIP3     H1       HT       0.417000        1.0080           0
     45258 WT3      6652     TIP3     H2       HT       0.417000        1.0080           0
     45259 WT3      6653     TIP3     OH2      OT      -0.834000       15.9994           0
     45260 WT3      6653     TIP3     H1       HT       0.417000        1.0080           0
     45261 WT3      6653     TIP3     H2       HT       0.417000        1.0080           0
     45262 WT3      6655     TIP3     OH2      OT      -0.834000       15.9994           0
     45263 WT3      6655     TIP3     H1       HT       0.417000        1.0080           0
     45264 WT3      6655     TIP3     H2       HT       0.417000        1.0080           0
     45265 WT3      6657     TIP3     OH2      OT      -0.834000       15.9994           0
     45266 WT3      6657     TIP3     H1       HT       0.417000        1.0080           0
     45267 WT3      6657     TIP3     H2       HT       0.417000        1.0080           0
     45268 WT3      6658     TIP3     OH2      OT      -0.834000       15.9994           0
     45269 WT3      6658     TIP3     H1       HT       0.417000        1.0080           0
     45270 WT3      6658     TIP3     H2       HT       0.417000        1.0080           0
     45271 WT3      6659     TIP3     OH2      OT      -0.834000       15.9994           0
     45272 WT3      6659     TIP3     H1       HT       0.417000        1.0080           0
     45273 WT3      6659     TIP3     H2       HT       0.417000        1.0080           0
     45274 WT3      6660     TIP3     OH2      OT      -0.834000       15.9994           0
     45275 WT3      6660     TIP3     H1       HT       0.417000        1.0080           0
     45276 WT3      6660     TIP3     H2       HT       0.417000        1.0080           0
     45277 WT3      6661     TIP3     OH2      OT      -0.834000       15.9994           0
     45278 WT3      6661     TIP3     H1       HT       0.417000        1.0080           0
     45279 WT3      6661     TIP3     H2       HT       0.417000        1.0080           0
     45280 WT3      6662     TIP3     OH2      OT      -0.834000       15.9994           0
     45281 WT3      6662     TIP3     H1       HT       0.417000        1.0080           0
     45282 WT3      6662     TIP3     H2       HT       0.417000        1.0080           0
     45283 WT3      6663     TIP3     OH2      OT      -0.834000       15.9994           0
     45284 WT3      6663     TIP3     H1       HT       0.417000        1.0080           0
     45285 WT3      6663     TIP3     H2       HT       0.417000        1.0080           0
     45286 WT3      6664     TIP3     OH2      OT      -0.834000       15.9994           0
     45287 WT3      6664     TIP3     H1       HT       0.417000        1.0080           0
     45288 WT3      6664     TIP3     H2       HT       0.417000        1.0080           0
     45289 WT3      6665     TIP3     OH2      OT      -0.834000       15.9994           0
     45290 WT3      6665     TIP3     H1       HT       0.417000        1.0080           0
     45291 WT3      6665     TIP3     H2       HT       0.417000        1.0080           0
     45292 WT3      6666     TIP3     OH2      OT      -0.834000       15.9994           0
     45293 WT3      6666     TIP3     H1       HT       0.417000        1.0080           0
     45294 WT3      6666     TIP3     H2       HT       0.417000        1.0080           0
     45295 WT3      6667     TIP3     OH2      OT      -0.834000       15.9994           0
     45296 WT3      6667     TIP3     H1       HT       0.417000        1.0080           0
     45297 WT3      6667     TIP3     H2       HT       0.417000        1.0080           0
     45298 WT3      6668     TIP3     OH2      OT      -0.834000       15.9994           0
     45299 WT3      6668     TIP3     H1       HT       0.417000        1.0080           0
     45300 WT3      6668     TIP3     H2       HT       0.417000        1.0080           0
     45301 WT3      6669     TIP3     OH2      OT      -0.834000       15.9994           0
     45302 WT3      6669     TIP3     H1       HT       0.417000        1.0080           0
     45303 WT3      6669     TIP3     H2       HT       0.417000        1.0080           0
     45304 WT3      6670     TIP3     OH2      OT      -0.834000       15.9994           0
     45305 WT3      6670     TIP3     H1       HT       0.417000        1.0080           0
     45306 WT3      6670     TIP3     H2       HT       0.417000        1.0080           0
     45307 WT3      6671     TIP3     OH2      OT      -0.834000       15.9994           0
     45308 WT3      6671     TIP3     H1       HT       0.417000        1.0080           0
     45309 WT3      6671     TIP3     H2       HT       0.417000        1.0080           0
     45310 WT3      6672     TIP3     OH2      OT      -0.834000       15.9994           0
     45311 WT3      6672     TIP3     H1       HT       0.417000        1.0080           0
     45312 WT3      6672     TIP3     H2       HT       0.417000        1.0080           0
     45313 WT3      6673     TIP3     OH2      OT      -0.834000       15.9994           0
     45314 WT3      6673     TIP3     H1       HT       0.417000        1.0080           0
     45315 WT3      6673     TIP3     H2       HT       0.417000        1.0080           0
     45316 WT3      6674     TIP3     OH2      OT      -0.834000       15.9994           0
     45317 WT3      6674     TIP3     H1       HT       0.417000        1.0080           0
     45318 WT3      6674     TIP3     H2       HT       0.417000        1.0080           0
     45319 WT3      6677     TIP3     OH2      OT      -0.834000       15.9994           0
     45320 WT3      6677     TIP3     H1       HT       0.417000        1.0080           0
     45321 WT3      6677     TIP3     H2       HT       0.417000        1.0080           0
     45322 WT3      6679     TIP3     OH2      OT      -0.834000       15.9994           0
     45323 WT3      6679     TIP3     H1       HT       0.417000        1.0080           0
     45324 WT3      6679     TIP3     H2       HT       0.417000        1.0080           0
     45325 WT3      6680     TIP3     OH2      OT      -0.834000       15.9994           0
     45326 WT3      6680     TIP3     H1       HT       0.417000        1.0080           0
     45327 WT3      6680     TIP3     H2       HT       0.417000        1.0080           0
     45328 WT3      6681     TIP3     OH2      OT      -0.834000       15.9994           0
     45329 WT3      6681     TIP3     H1       HT       0.417000        1.0080           0
     45330 WT3      6681     TIP3     H2       HT       0.417000        1.0080           0
     45331 WT3      6682     TIP3     OH2      OT      -0.834000       15.9994           0
     45332 WT3      6682     TIP3     H1       HT       0.417000        1.0080           0
     45333 WT3      6682     TIP3     H2       HT       0.417000        1.0080           0
     45334 WT3      6683     TIP3     OH2      OT      -0.834000       15.9994           0
     45335 WT3      6683     TIP3     H1       HT       0.417000        1.0080           0
     45336 WT3      6683     TIP3     H2       HT       0.417000        1.0080           0
     45337 WT3      6684     TIP3     OH2      OT      -0.834000       15.9994           0
     45338 WT3      6684     TIP3     H1       HT       0.417000        1.0080           0
     45339 WT3      6684     TIP3     H2       HT       0.417000        1.0080           0
     45340 WT3      6685     TIP3     OH2      OT      -0.834000       15.9994           0
     45341 WT3      6685     TIP3     H1       HT       0.417000        1.0080           0
     45342 WT3      6685     TIP3     H2       HT       0.417000        1.0080           0
     45343 WT3      6686     TIP3     OH2      OT      -0.834000       15.9994           0
     45344 WT3      6686     TIP3     H1       HT       0.417000        1.0080           0
     45345 WT3      6686     TIP3     H2       HT       0.417000        1.0080           0
     45346 WT3      6687     TIP3     OH2      OT      -0.834000       15.9994           0
     45347 WT3      6687     TIP3     H1       HT       0.417000        1.0080           0
     45348 WT3      6687     TIP3     H2       HT       0.417000        1.0080           0
     45349 WT3      6689     TIP3     OH2      OT      -0.834000       15.9994           0
     45350 WT3      6689     TIP3     H1       HT       0.417000        1.0080           0
     45351 WT3      6689     TIP3     H2       HT       0.417000        1.0080           0
     45352 WT3      6690     TIP3     OH2      OT      -0.834000       15.9994           0
     45353 WT3      6690     TIP3     H1       HT       0.417000        1.0080           0
     45354 WT3      6690     TIP3     H2       HT       0.417000        1.0080           0
     45355 WT3      6691     TIP3     OH2      OT      -0.834000       15.9994           0
     45356 WT3      6691     TIP3     H1       HT       0.417000        1.0080           0
     45357 WT3      6691     TIP3     H2       HT       0.417000        1.0080           0
     45358 WT3      6692     TIP3     OH2      OT      -0.834000       15.9994           0
     45359 WT3      6692     TIP3     H1       HT       0.417000        1.0080           0
     45360 WT3      6692     TIP3     H2       HT       0.417000        1.0080           0
     45361 WT3      6693     TIP3     OH2      OT      -0.834000       15.9994           0
     45362 WT3      6693     TIP3     H1       HT       0.417000        1.0080           0
     45363 WT3      6693     TIP3     H2       HT       0.417000        1.0080           0
     45364 WT3      6694     TIP3     OH2      OT      -0.834000       15.9994           0
     45365 WT3      6694     TIP3     H1       HT       0.417000        1.0080           0
     45366 WT3      6694     TIP3     H2       HT       0.417000        1.0080           0
     45367 WT3      6695     TIP3     OH2      OT      -0.834000       15.9994           0
     45368 WT3      6695     TIP3     H1       HT       0.417000        1.0080           0
     45369 WT3      6695     TIP3     H2       HT       0.417000        1.0080           0
     45370 WT3      6697     TIP3     OH2      OT      -0.834000       15.9994           0
     45371 WT3      6697     TIP3     H1       HT       0.417000        1.0080           0
     45372 WT3      6697     TIP3     H2       HT       0.417000        1.0080           0
     45373 WT3      6698     TIP3     OH2      OT      -0.834000       15.9994           0
     45374 WT3      6698     TIP3     H1       HT       0.417000        1.0080           0
     45375 WT3      6698     TIP3     H2       HT       0.417000        1.0080           0
     45376 WT3      6699     TIP3     OH2      OT      -0.834000       15.9994           0
     45377 WT3      6699     TIP3     H1       HT       0.417000        1.0080           0
     45378 WT3      6699     TIP3     H2       HT       0.417000        1.0080           0
     45379 WT3      6700     TIP3     OH2      OT      -0.834000       15.9994           0
     45380 WT3      6700     TIP3     H1       HT       0.417000        1.0080           0
     45381 WT3      6700     TIP3     H2       HT       0.417000        1.0080           0
     45382 WT3      6701     TIP3     OH2      OT      -0.834000       15.9994           0
     45383 WT3      6701     TIP3     H1       HT       0.417000        1.0080           0
     45384 WT3      6701     TIP3     H2       HT       0.417000        1.0080           0
     45385 WT3      6703     TIP3     OH2      OT      -0.834000       15.9994           0
     45386 WT3      6703     TIP3     H1       HT       0.417000        1.0080           0
     45387 WT3      6703     TIP3     H2       HT       0.417000        1.0080           0
     45388 WT3      6704     TIP3     OH2      OT      -0.834000       15.9994           0
     45389 WT3      6704     TIP3     H1       HT       0.417000        1.0080           0
     45390 WT3      6704     TIP3     H2       HT       0.417000        1.0080           0
     45391 WT3      6705     TIP3     OH2      OT      -0.834000       15.9994           0
     45392 WT3      6705     TIP3     H1       HT       0.417000        1.0080           0
     45393 WT3      6705     TIP3     H2       HT       0.417000        1.0080           0
     45394 WT3      6706     TIP3     OH2      OT      -0.834000       15.9994           0
     45395 WT3      6706     TIP3     H1       HT       0.417000        1.0080           0
     45396 WT3      6706     TIP3     H2       HT       0.417000        1.0080           0
     45397 WT3      6707     TIP3     OH2      OT      -0.834000       15.9994           0
     45398 WT3      6707     TIP3     H1       HT       0.417000        1.0080           0
     45399 WT3      6707     TIP3     H2       HT       0.417000        1.0080           0
     45400 WT3      6708     TIP3     OH2      OT      -0.834000       15.9994           0
     45401 WT3      6708     TIP3     H1       HT       0.417000        1.0080           0
     45402 WT3      6708     TIP3     H2       HT       0.417000        1.0080           0
     45403 WT3      6709     TIP3     OH2      OT      -0.834000       15.9994           0
     45404 WT3      6709     TIP3     H1       HT       0.417000        1.0080           0
     45405 WT3      6709     TIP3     H2       HT       0.417000        1.0080           0
     45406 WT3      6710     TIP3     OH2      OT      -0.834000       15.9994           0
     45407 WT3      6710     TIP3     H1       HT       0.417000        1.0080           0
     45408 WT3      6710     TIP3     H2       HT       0.417000        1.0080           0
     45409 WT3      6712     TIP3     OH2      OT      -0.834000       15.9994           0
     45410 WT3      6712     TIP3     H1       HT       0.417000        1.0080           0
     45411 WT3      6712     TIP3     H2       HT       0.417000        1.0080           0
     45412 WT3      6714     TIP3     OH2      OT      -0.834000       15.9994           0
     45413 WT3      6714     TIP3     H1       HT       0.417000        1.0080           0
     45414 WT3      6714     TIP3     H2       HT       0.417000        1.0080           0
     45415 WT3      6715     TIP3     OH2      OT      -0.834000       15.9994           0
     45416 WT3      6715     TIP3     H1       HT       0.417000        1.0080           0
     45417 WT3      6715     TIP3     H2       HT       0.417000        1.0080           0
     45418 WT3      6716     TIP3     OH2      OT      -0.834000       15.9994           0
     45419 WT3      6716     TIP3     H1       HT       0.417000        1.0080           0
     45420 WT3      6716     TIP3     H2       HT       0.417000        1.0080           0
     45421 WT3      6717     TIP3     OH2      OT      -0.834000       15.9994           0
     45422 WT3      6717     TIP3     H1       HT       0.417000        1.0080           0
     45423 WT3      6717     TIP3     H2       HT       0.417000        1.0080           0
     45424 WT3      6718     TIP3     OH2      OT      -0.834000       15.9994           0
     45425 WT3      6718     TIP3     H1       HT       0.417000        1.0080           0
     45426 WT3      6718     TIP3     H2       HT       0.417000        1.0080           0
     45427 WT3      6719     TIP3     OH2      OT      -0.834000       15.9994           0
     45428 WT3      6719     TIP3     H1       HT       0.417000        1.0080           0
     45429 WT3      6719     TIP3     H2       HT       0.417000        1.0080           0
     45430 WT3      6720     TIP3     OH2      OT      -0.834000       15.9994           0
     45431 WT3      6720     TIP3     H1       HT       0.417000        1.0080           0
     45432 WT3      6720     TIP3     H2       HT       0.417000        1.0080           0
     45433 WT3      6721     TIP3     OH2      OT      -0.834000       15.9994           0
     45434 WT3      6721     TIP3     H1       HT       0.417000        1.0080           0
     45435 WT3      6721     TIP3     H2       HT       0.417000        1.0080           0
     45436 WT3      6724     TIP3     OH2      OT      -0.834000       15.9994           0
     45437 WT3      6724     TIP3     H1       HT       0.417000        1.0080           0
     45438 WT3      6724     TIP3     H2       HT       0.417000        1.0080           0
     45439 WT3      6725     TIP3     OH2      OT      -0.834000       15.9994           0
     45440 WT3      6725     TIP3     H1       HT       0.417000        1.0080           0
     45441 WT3      6725     TIP3     H2       HT       0.417000        1.0080           0
     45442 WT3      6726     TIP3     OH2      OT      -0.834000       15.9994           0
     45443 WT3      6726     TIP3     H1       HT       0.417000        1.0080           0
     45444 WT3      6726     TIP3     H2       HT       0.417000        1.0080           0
     45445 WT3      6727     TIP3     OH2      OT      -0.834000       15.9994           0
     45446 WT3      6727     TIP3     H1       HT       0.417000        1.0080           0
     45447 WT3      6727     TIP3     H2       HT       0.417000        1.0080           0
     45448 WT3      6728     TIP3     OH2      OT      -0.834000       15.9994           0
     45449 WT3      6728     TIP3     H1       HT       0.417000        1.0080           0
     45450 WT3      6728     TIP3     H2       HT       0.417000        1.0080           0
     45451 WT3      6729     TIP3     OH2      OT      -0.834000       15.9994           0
     45452 WT3      6729     TIP3     H1       HT       0.417000        1.0080           0
     45453 WT3      6729     TIP3     H2       HT       0.417000        1.0080           0
     45454 WT3      6730     TIP3     OH2      OT      -0.834000       15.9994           0
     45455 WT3      6730     TIP3     H1       HT       0.417000        1.0080           0
     45456 WT3      6730     TIP3     H2       HT       0.417000        1.0080           0
     45457 WT3      6731     TIP3     OH2      OT      -0.834000       15.9994           0
     45458 WT3      6731     TIP3     H1       HT       0.417000        1.0080           0
     45459 WT3      6731     TIP3     H2       HT       0.417000        1.0080           0
     45460 WT3      6732     TIP3     OH2      OT      -0.834000       15.9994           0
     45461 WT3      6732     TIP3     H1       HT       0.417000        1.0080           0
     45462 WT3      6732     TIP3     H2       HT       0.417000        1.0080           0
     45463 WT3      6733     TIP3     OH2      OT      -0.834000       15.9994           0
     45464 WT3      6733     TIP3     H1       HT       0.417000        1.0080           0
     45465 WT3      6733     TIP3     H2       HT       0.417000        1.0080           0
     45466 WT3      6734     TIP3     OH2      OT      -0.834000       15.9994           0
     45467 WT3      6734     TIP3     H1       HT       0.417000        1.0080           0
     45468 WT3      6734     TIP3     H2       HT       0.417000        1.0080           0
     45469 WT3      6736     TIP3     OH2      OT      -0.834000       15.9994           0
     45470 WT3      6736     TIP3     H1       HT       0.417000        1.0080           0
     45471 WT3      6736     TIP3     H2       HT       0.417000        1.0080           0
     45472 WT3      6737     TIP3     OH2      OT      -0.834000       15.9994           0
     45473 WT3      6737     TIP3     H1       HT       0.417000        1.0080           0
     45474 WT3      6737     TIP3     H2       HT       0.417000        1.0080           0
     45475 WT3      6738     TIP3     OH2      OT      -0.834000       15.9994           0
     45476 WT3      6738     TIP3     H1       HT       0.417000        1.0080           0
     45477 WT3      6738     TIP3     H2       HT       0.417000        1.0080           0
     45478 WT3      6739     TIP3     OH2      OT      -0.834000       15.9994           0
     45479 WT3      6739     TIP3     H1       HT       0.417000        1.0080           0
     45480 WT3      6739     TIP3     H2       HT       0.417000        1.0080           0
     45481 WT3      6740     TIP3     OH2      OT      -0.834000       15.9994           0
     45482 WT3      6740     TIP3     H1       HT       0.417000        1.0080           0
     45483 WT3      6740     TIP3     H2       HT       0.417000        1.0080           0
     45484 WT3      6741     TIP3     OH2      OT      -0.834000       15.9994           0
     45485 WT3      6741     TIP3     H1       HT       0.417000        1.0080           0
     45486 WT3      6741     TIP3     H2       HT       0.417000        1.0080           0
     45487 WT3      6742     TIP3     OH2      OT      -0.834000       15.9994           0
     45488 WT3      6742     TIP3     H1       HT       0.417000        1.0080           0
     45489 WT3      6742     TIP3     H2       HT       0.417000        1.0080           0
     45490 WT3      6743     TIP3     OH2      OT      -0.834000       15.9994           0
     45491 WT3      6743     TIP3     H1       HT       0.417000        1.0080           0
     45492 WT3      6743     TIP3     H2       HT       0.417000        1.0080           0
     45493 WT3      6744     TIP3     OH2      OT      -0.834000       15.9994           0
     45494 WT3      6744     TIP3     H1       HT       0.417000        1.0080           0
     45495 WT3      6744     TIP3     H2       HT       0.417000        1.0080           0
     45496 WT3      6745     TIP3     OH2      OT      -0.834000       15.9994           0
     45497 WT3      6745     TIP3     H1       HT       0.417000        1.0080           0
     45498 WT3      6745     TIP3     H2       HT       0.417000        1.0080           0
     45499 WT3      6746     TIP3     OH2      OT      -0.834000       15.9994           0
     45500 WT3      6746     TIP3     H1       HT       0.417000        1.0080           0
     45501 WT3      6746     TIP3     H2       HT       0.417000        1.0080           0
     45502 WT3      6747     TIP3     OH2      OT      -0.834000       15.9994           0
     45503 WT3      6747     TIP3     H1       HT       0.417000        1.0080           0
     45504 WT3      6747     TIP3     H2       HT       0.417000        1.0080           0
     45505 WT3      6750     TIP3     OH2      OT      -0.834000       15.9994           0
     45506 WT3      6750     TIP3     H1       HT       0.417000        1.0080           0
     45507 WT3      6750     TIP3     H2       HT       0.417000        1.0080           0
     45508 WT3      6752     TIP3     OH2      OT      -0.834000       15.9994           0
     45509 WT3      6752     TIP3     H1       HT       0.417000        1.0080           0
     45510 WT3      6752     TIP3     H2       HT       0.417000        1.0080           0
     45511 WT3      6753     TIP3     OH2      OT      -0.834000       15.9994           0
     45512 WT3      6753     TIP3     H1       HT       0.417000        1.0080           0
     45513 WT3      6753     TIP3     H2       HT       0.417000        1.0080           0
     45514 WT3      6754     TIP3     OH2      OT      -0.834000       15.9994           0
     45515 WT3      6754     TIP3     H1       HT       0.417000        1.0080           0
     45516 WT3      6754     TIP3     H2       HT       0.417000        1.0080           0
     45517 WT3      6755     TIP3     OH2      OT      -0.834000       15.9994           0
     45518 WT3      6755     TIP3     H1       HT       0.417000        1.0080           0
     45519 WT3      6755     TIP3     H2       HT       0.417000        1.0080           0
     45520 WT3      6757     TIP3     OH2      OT      -0.834000       15.9994           0
     45521 WT3      6757     TIP3     H1       HT       0.417000        1.0080           0
     45522 WT3      6757     TIP3     H2       HT       0.417000        1.0080           0
     45523 WT3      6758     TIP3     OH2      OT      -0.834000       15.9994           0
     45524 WT3      6758     TIP3     H1       HT       0.417000        1.0080           0
     45525 WT3      6758     TIP3     H2       HT       0.417000        1.0080           0
     45526 WT3      6761     TIP3     OH2      OT      -0.834000       15.9994           0
     45527 WT3      6761     TIP3     H1       HT       0.417000        1.0080           0
     45528 WT3      6761     TIP3     H2       HT       0.417000        1.0080           0
     45529 WT3      6763     TIP3     OH2      OT      -0.834000       15.9994           0
     45530 WT3      6763     TIP3     H1       HT       0.417000        1.0080           0
     45531 WT3      6763     TIP3     H2       HT       0.417000        1.0080           0
     45532 WT3      6764     TIP3     OH2      OT      -0.834000       15.9994           0
     45533 WT3      6764     TIP3     H1       HT       0.417000        1.0080           0
     45534 WT3      6764     TIP3     H2       HT       0.417000        1.0080           0
     45535 WT3      6765     TIP3     OH2      OT      -0.834000       15.9994           0
     45536 WT3      6765     TIP3     H1       HT       0.417000        1.0080           0
     45537 WT3      6765     TIP3     H2       HT       0.417000        1.0080           0
     45538 WT3      6767     TIP3     OH2      OT      -0.834000       15.9994           0
     45539 WT3      6767     TIP3     H1       HT       0.417000        1.0080           0
     45540 WT3      6767     TIP3     H2       HT       0.417000        1.0080           0
     45541 WT3      6769     TIP3     OH2      OT      -0.834000       15.9994           0
     45542 WT3      6769     TIP3     H1       HT       0.417000        1.0080           0
     45543 WT3      6769     TIP3     H2       HT       0.417000        1.0080           0
     45544 WT3      6770     TIP3     OH2      OT      -0.834000       15.9994           0
     45545 WT3      6770     TIP3     H1       HT       0.417000        1.0080           0
     45546 WT3      6770     TIP3     H2       HT       0.417000        1.0080           0
     45547 WT3      6771     TIP3     OH2      OT      -0.834000       15.9994           0
     45548 WT3      6771     TIP3     H1       HT       0.417000        1.0080           0
     45549 WT3      6771     TIP3     H2       HT       0.417000        1.0080           0
     45550 WT3      6772     TIP3     OH2      OT      -0.834000       15.9994           0
     45551 WT3      6772     TIP3     H1       HT       0.417000        1.0080           0
     45552 WT3      6772     TIP3     H2       HT       0.417000        1.0080           0
     45553 WT3      6776     TIP3     OH2      OT      -0.834000       15.9994           0
     45554 WT3      6776     TIP3     H1       HT       0.417000        1.0080           0
     45555 WT3      6776     TIP3     H2       HT       0.417000        1.0080           0
     45556 WT3      6777     TIP3     OH2      OT      -0.834000       15.9994           0
     45557 WT3      6777     TIP3     H1       HT       0.417000        1.0080           0
     45558 WT3      6777     TIP3     H2       HT       0.417000        1.0080           0
     45559 WT3      6778     TIP3     OH2      OT      -0.834000       15.9994           0
     45560 WT3      6778     TIP3     H1       HT       0.417000        1.0080           0
     45561 WT3      6778     TIP3     H2       HT       0.417000        1.0080           0
     45562 WT3      6781     TIP3     OH2      OT      -0.834000       15.9994           0
     45563 WT3      6781     TIP3     H1       HT       0.417000        1.0080           0
     45564 WT3      6781     TIP3     H2       HT       0.417000        1.0080           0
     45565 WT3      6782     TIP3     OH2      OT      -0.834000       15.9994           0
     45566 WT3      6782     TIP3     H1       HT       0.417000        1.0080           0
     45567 WT3      6782     TIP3     H2       HT       0.417000        1.0080           0
     45568 WT3      6786     TIP3     OH2      OT      -0.834000       15.9994           0
     45569 WT3      6786     TIP3     H1       HT       0.417000        1.0080           0
     45570 WT3      6786     TIP3     H2       HT       0.417000        1.0080           0
     45571 WT3      6794     TIP3     OH2      OT      -0.834000       15.9994           0
     45572 WT3      6794     TIP3     H1       HT       0.417000        1.0080           0
     45573 WT3      6794     TIP3     H2       HT       0.417000        1.0080           0
     45574 WT3      6802     TIP3     OH2      OT      -0.834000       15.9994           0
     45575 WT3      6802     TIP3     H1       HT       0.417000        1.0080           0
     45576 WT3      6802     TIP3     H2       HT       0.417000        1.0080           0
     45577 WT3      6813     TIP3     OH2      OT      -0.834000       15.9994           0
     45578 WT3      6813     TIP3     H1       HT       0.417000        1.0080           0
     45579 WT3      6813     TIP3     H2       HT       0.417000        1.0080           0
     45580 WT3      6814     TIP3     OH2      OT      -0.834000       15.9994           0
     45581 WT3      6814     TIP3     H1       HT       0.417000        1.0080           0
     45582 WT3      6814     TIP3     H2       HT       0.417000        1.0080           0
     45583 WT3      6817     TIP3     OH2      OT      -0.834000       15.9994           0
     45584 WT3      6817     TIP3     H1       HT       0.417000        1.0080           0
     45585 WT3      6817     TIP3     H2       HT       0.417000        1.0080           0
     45586 WT3      6818     TIP3     OH2      OT      -0.834000       15.9994           0
     45587 WT3      6818     TIP3     H1       HT       0.417000        1.0080           0
     45588 WT3      6818     TIP3     H2       HT       0.417000        1.0080           0
     45589 WT3      6819     TIP3     OH2      OT      -0.834000       15.9994           0
     45590 WT3      6819     TIP3     H1       HT       0.417000        1.0080           0
     45591 WT3      6819     TIP3     H2       HT       0.417000        1.0080           0
     45592 WT3      6820     TIP3     OH2      OT      -0.834000       15.9994           0
     45593 WT3      6820     TIP3     H1       HT       0.417000        1.0080           0
     45594 WT3      6820     TIP3     H2       HT       0.417000        1.0080           0
     45595 WT3      6823     TIP3     OH2      OT      -0.834000       15.9994           0
     45596 WT3      6823     TIP3     H1       HT       0.417000        1.0080           0
     45597 WT3      6823     TIP3     H2       HT       0.417000        1.0080           0
     45598 WT3      6824     TIP3     OH2      OT      -0.834000       15.9994           0
     45599 WT3      6824     TIP3     H1       HT       0.417000        1.0080           0
     45600 WT3      6824     TIP3     H2       HT       0.417000        1.0080           0
     45601 WT3      6825     TIP3     OH2      OT      -0.834000       15.9994           0
     45602 WT3      6825     TIP3     H1       HT       0.417000        1.0080           0
     45603 WT3      6825     TIP3     H2       HT       0.417000        1.0080           0
     45604 WT3      6837     TIP3     OH2      OT      -0.834000       15.9994           0
     45605 WT3      6837     TIP3     H1       HT       0.417000        1.0080           0
     45606 WT3      6837     TIP3     H2       HT       0.417000        1.0080           0
     45607 WT3      6841     TIP3     OH2      OT      -0.834000       15.9994           0
     45608 WT3      6841     TIP3     H1       HT       0.417000        1.0080           0
     45609 WT3      6841     TIP3     H2       HT       0.417000        1.0080           0
     45610 WT3      6842     TIP3     OH2      OT      -0.834000       15.9994           0
     45611 WT3      6842     TIP3     H1       HT       0.417000        1.0080           0
     45612 WT3      6842     TIP3     H2       HT       0.417000        1.0080           0
     45613 WT3      6843     TIP3     OH2      OT      -0.834000       15.9994           0
     45614 WT3      6843     TIP3     H1       HT       0.417000        1.0080           0
     45615 WT3      6843     TIP3     H2       HT       0.417000        1.0080           0
     45616 WT3      6855     TIP3     OH2      OT      -0.834000       15.9994           0
     45617 WT3      6855     TIP3     H1       HT       0.417000        1.0080           0
     45618 WT3      6855     TIP3     H2       HT       0.417000        1.0080           0
     45619 WT3      6857     TIP3     OH2      OT      -0.834000       15.9994           0
     45620 WT3      6857     TIP3     H1       HT       0.417000        1.0080           0
     45621 WT3      6857     TIP3     H2       HT       0.417000        1.0080           0
     45622 WT3      6863     TIP3     OH2      OT      -0.834000       15.9994           0
     45623 WT3      6863     TIP3     H1       HT       0.417000        1.0080           0
     45624 WT3      6863     TIP3     H2       HT       0.417000        1.0080           0
     45625 WT3      6864     TIP3     OH2      OT      -0.834000       15.9994           0
     45626 WT3      6864     TIP3     H1       HT       0.417000        1.0080           0
     45627 WT3      6864     TIP3     H2       HT       0.417000        1.0080           0
     45628 WT3      6878     TIP3     OH2      OT      -0.834000       15.9994           0
     45629 WT3      6878     TIP3     H1       HT       0.417000        1.0080           0
     45630 WT3      6878     TIP3     H2       HT       0.417000        1.0080           0
     45631 WT3      6952     TIP3     OH2      OT      -0.834000       15.9994           0
     45632 WT3      6952     TIP3     H1       HT       0.417000        1.0080           0
     45633 WT3      6952     TIP3     H2       HT       0.417000        1.0080           0
     45634 WT3      6953     TIP3     OH2      OT      -0.834000       15.9994           0
     45635 WT3      6953     TIP3     H1       HT       0.417000        1.0080           0
     45636 WT3      6953     TIP3     H2       HT       0.417000        1.0080           0
     45637 WT3      6955     TIP3     OH2      OT      -0.834000       15.9994           0
     45638 WT3      6955     TIP3     H1       HT       0.417000        1.0080           0
     45639 WT3      6955     TIP3     H2       HT       0.417000        1.0080           0
     45640 WT3      6975     TIP3     OH2      OT      -0.834000       15.9994           0
     45641 WT3      6975     TIP3     H1       HT       0.417000        1.0080           0
     45642 WT3      6975     TIP3     H2       HT       0.417000        1.0080           0
     45643 WT3      6976     TIP3     OH2      OT      -0.834000       15.9994           0
     45644 WT3      6976     TIP3     H1       HT       0.417000        1.0080           0
     45645 WT3      6976     TIP3     H2       HT       0.417000        1.0080           0
     45646 WT3      6988     TIP3     OH2      OT      -0.834000       15.9994           0
     45647 WT3      6988     TIP3     H1       HT       0.417000        1.0080           0
     45648 WT3      6988     TIP3     H2       HT       0.417000        1.0080           0
     45649 WT3      6994     TIP3     OH2      OT      -0.834000       15.9994           0
     45650 WT3      6994     TIP3     H1       HT       0.417000        1.0080           0
     45651 WT3      6994     TIP3     H2       HT       0.417000        1.0080           0
     45652 WT3      7001     TIP3     OH2      OT      -0.834000       15.9994           0
     45653 WT3      7001     TIP3     H1       HT       0.417000        1.0080           0
     45654 WT3      7001     TIP3     H2       HT       0.417000        1.0080           0
     45655 WT3      7003     TIP3     OH2      OT      -0.834000       15.9994           0
     45656 WT3      7003     TIP3     H1       HT       0.417000        1.0080           0
     45657 WT3      7003     TIP3     H2       HT       0.417000        1.0080           0
     45658 WT3      7012     TIP3     OH2      OT      -0.834000       15.9994           0
     45659 WT3      7012     TIP3     H1       HT       0.417000        1.0080           0
     45660 WT3      7012     TIP3     H2       HT       0.417000        1.0080           0
     45661 WT3      7016     TIP3     OH2      OT      -0.834000       15.9994           0
     45662 WT3      7016     TIP3     H1       HT       0.417000        1.0080           0
     45663 WT3      7016     TIP3     H2       HT       0.417000        1.0080           0
     45664 WT3      7017     TIP3     OH2      OT      -0.834000       15.9994           0
     45665 WT3      7017     TIP3     H1       HT       0.417000        1.0080           0
     45666 WT3      7017     TIP3     H2       HT       0.417000        1.0080           0
     45667 WT3      7019     TIP3     OH2      OT      -0.834000       15.9994           0
     45668 WT3      7019     TIP3     H1       HT       0.417000        1.0080           0
     45669 WT3      7019     TIP3     H2       HT       0.417000        1.0080           0
     45670 WT3      7020     TIP3     OH2      OT      -0.834000       15.9994           0
     45671 WT3      7020     TIP3     H1       HT       0.417000        1.0080           0
     45672 WT3      7020     TIP3     H2       HT       0.417000        1.0080           0
     45673 WT3      7021     TIP3     OH2      OT      -0.834000       15.9994           0
     45674 WT3      7021     TIP3     H1       HT       0.417000        1.0080           0
     45675 WT3      7021     TIP3     H2       HT       0.417000        1.0080           0
     45676 WT3      7023     TIP3     OH2      OT      -0.834000       15.9994           0
     45677 WT3      7023     TIP3     H1       HT       0.417000        1.0080           0
     45678 WT3      7023     TIP3     H2       HT       0.417000        1.0080           0
     45679 WT3      7027     TIP3     OH2      OT      -0.834000       15.9994           0
     45680 WT3      7027     TIP3     H1       HT       0.417000        1.0080           0
     45681 WT3      7027     TIP3     H2       HT       0.417000        1.0080           0
     45682 WT3      7029     TIP3     OH2      OT      -0.834000       15.9994           0
     45683 WT3      7029     TIP3     H1       HT       0.417000        1.0080           0
     45684 WT3      7029     TIP3     H2       HT       0.417000        1.0080           0
     45685 WT3      7040     TIP3     OH2      OT      -0.834000       15.9994           0
     45686 WT3      7040     TIP3     H1       HT       0.417000        1.0080           0
     45687 WT3      7040     TIP3     H2       HT       0.417000        1.0080           0
     45688 WT3      7041     TIP3     OH2      OT      -0.834000       15.9994           0
     45689 WT3      7041     TIP3     H1       HT       0.417000        1.0080           0
     45690 WT3      7041     TIP3     H2       HT       0.417000        1.0080           0
     45691 WT3      7042     TIP3     OH2      OT      -0.834000       15.9994           0
     45692 WT3      7042     TIP3     H1       HT       0.417000        1.0080           0
     45693 WT3      7042     TIP3     H2       HT       0.417000        1.0080           0
     45694 WT3      7043     TIP3     OH2      OT      -0.834000       15.9994           0
     45695 WT3      7043     TIP3     H1       HT       0.417000        1.0080           0
     45696 WT3      7043     TIP3     H2       HT       0.417000        1.0080           0
     45697 WT3      7046     TIP3     OH2      OT      -0.834000       15.9994           0
     45698 WT3      7046     TIP3     H1       HT       0.417000        1.0080           0
     45699 WT3      7046     TIP3     H2       HT       0.417000        1.0080           0
     45700 WT3      7048     TIP3     OH2      OT      -0.834000       15.9994           0
     45701 WT3      7048     TIP3     H1       HT       0.417000        1.0080           0
     45702 WT3      7048     TIP3     H2       HT       0.417000        1.0080           0
     45703 WT3      7050     TIP3     OH2      OT      -0.834000       15.9994           0
     45704 WT3      7050     TIP3     H1       HT       0.417000        1.0080           0
     45705 WT3      7050     TIP3     H2       HT       0.417000        1.0080           0
     45706 WT3      7051     TIP3     OH2      OT      -0.834000       15.9994           0
     45707 WT3      7051     TIP3     H1       HT       0.417000        1.0080           0
     45708 WT3      7051     TIP3     H2       HT       0.417000        1.0080           0
     45709 WT3      7052     TIP3     OH2      OT      -0.834000       15.9994           0
     45710 WT3      7052     TIP3     H1       HT       0.417000        1.0080           0
     45711 WT3      7052     TIP3     H2       HT       0.417000        1.0080           0
     45712 WT3      7053     TIP3     OH2      OT      -0.834000       15.9994           0
     45713 WT3      7053     TIP3     H1       HT       0.417000        1.0080           0
     45714 WT3      7053     TIP3     H2       HT       0.417000        1.0080           0
     45715 WT3      7054     TIP3     OH2      OT      -0.834000       15.9994           0
     45716 WT3      7054     TIP3     H1       HT       0.417000        1.0080           0
     45717 WT3      7054     TIP3     H2       HT       0.417000        1.0080           0
     45718 WT3      7056     TIP3     OH2      OT      -0.834000       15.9994           0
     45719 WT3      7056     TIP3     H1       HT       0.417000        1.0080           0
     45720 WT3      7056     TIP3     H2       HT       0.417000        1.0080           0
     45721 WT3      7058     TIP3     OH2      OT      -0.834000       15.9994           0
     45722 WT3      7058     TIP3     H1       HT       0.417000        1.0080           0
     45723 WT3      7058     TIP3     H2       HT       0.417000        1.0080           0
     45724 WT3      7059     TIP3     OH2      OT      -0.834000       15.9994           0
     45725 WT3      7059     TIP3     H1       HT       0.417000        1.0080           0
     45726 WT3      7059     TIP3     H2       HT       0.417000        1.0080           0
     45727 WT3      7060     TIP3     OH2      OT      -0.834000       15.9994           0
     45728 WT3      7060     TIP3     H1       HT       0.417000        1.0080           0
     45729 WT3      7060     TIP3     H2       HT       0.417000        1.0080           0
     45730 WT3      7062     TIP3     OH2      OT      -0.834000       15.9994           0
     45731 WT3      7062     TIP3     H1       HT       0.417000        1.0080           0
     45732 WT3      7062     TIP3     H2       HT       0.417000        1.0080           0
     45733 WT3      7063     TIP3     OH2      OT      -0.834000       15.9994           0
     45734 WT3      7063     TIP3     H1       HT       0.417000        1.0080           0
     45735 WT3      7063     TIP3     H2       HT       0.417000        1.0080           0
     45736 WT3      7065     TIP3     OH2      OT      -0.834000       15.9994           0
     45737 WT3      7065     TIP3     H1       HT       0.417000        1.0080           0
     45738 WT3      7065     TIP3     H2       HT       0.417000        1.0080           0
     45739 WT3      7067     TIP3     OH2      OT      -0.834000       15.9994           0
     45740 WT3      7067     TIP3     H1       HT       0.417000        1.0080           0
     45741 WT3      7067     TIP3     H2       HT       0.417000        1.0080           0
     45742 WT3      7068     TIP3     OH2      OT      -0.834000       15.9994           0
     45743 WT3      7068     TIP3     H1       HT       0.417000        1.0080           0
     45744 WT3      7068     TIP3     H2       HT       0.417000        1.0080           0
     45745 WT3      7069     TIP3     OH2      OT      -0.834000       15.9994           0
     45746 WT3      7069     TIP3     H1       HT       0.417000        1.0080           0
     45747 WT3      7069     TIP3     H2       HT       0.417000        1.0080           0
     45748 WT3      7071     TIP3     OH2      OT      -0.834000       15.9994           0
     45749 WT3      7071     TIP3     H1       HT       0.417000        1.0080           0
     45750 WT3      7071     TIP3     H2       HT       0.417000        1.0080           0
     45751 WT3      7073     TIP3     OH2      OT      -0.834000       15.9994           0
     45752 WT3      7073     TIP3     H1       HT       0.417000        1.0080           0
     45753 WT3      7073     TIP3     H2       HT       0.417000        1.0080           0
     45754 WT3      7074     TIP3     OH2      OT      -0.834000       15.9994           0
     45755 WT3      7074     TIP3     H1       HT       0.417000        1.0080           0
     45756 WT3      7074     TIP3     H2       HT       0.417000        1.0080           0
     45757 WT3      7075     TIP3     OH2      OT      -0.834000       15.9994           0
     45758 WT3      7075     TIP3     H1       HT       0.417000        1.0080           0
     45759 WT3      7075     TIP3     H2       HT       0.417000        1.0080           0
     45760 WT3      7076     TIP3     OH2      OT      -0.834000       15.9994           0
     45761 WT3      7076     TIP3     H1       HT       0.417000        1.0080           0
     45762 WT3      7076     TIP3     H2       HT       0.417000        1.0080           0
     45763 WT3      7077     TIP3     OH2      OT      -0.834000       15.9994           0
     45764 WT3      7077     TIP3     H1       HT       0.417000        1.0080           0
     45765 WT3      7077     TIP3     H2       HT       0.417000        1.0080           0
     45766 WT3      7078     TIP3     OH2      OT      -0.834000       15.9994           0
     45767 WT3      7078     TIP3     H1       HT       0.417000        1.0080           0
     45768 WT3      7078     TIP3     H2       HT       0.417000        1.0080           0
     45769 WT3      7079     TIP3     OH2      OT      -0.834000       15.9994           0
     45770 WT3      7079     TIP3     H1       HT       0.417000        1.0080           0
     45771 WT3      7079     TIP3     H2       HT       0.417000        1.0080           0
     45772 WT3      7081     TIP3     OH2      OT      -0.834000       15.9994           0
     45773 WT3      7081     TIP3     H1       HT       0.417000        1.0080           0
     45774 WT3      7081     TIP3     H2       HT       0.417000        1.0080           0
     45775 WT3      7082     TIP3     OH2      OT      -0.834000       15.9994           0
     45776 WT3      7082     TIP3     H1       HT       0.417000        1.0080           0
     45777 WT3      7082     TIP3     H2       HT       0.417000        1.0080           0
     45778 WT3      7083     TIP3     OH2      OT      -0.834000       15.9994           0
     45779 WT3      7083     TIP3     H1       HT       0.417000        1.0080           0
     45780 WT3      7083     TIP3     H2       HT       0.417000        1.0080           0
     45781 WT3      7085     TIP3     OH2      OT      -0.834000       15.9994           0
     45782 WT3      7085     TIP3     H1       HT       0.417000        1.0080           0
     45783 WT3      7085     TIP3     H2       HT       0.417000        1.0080           0
     45784 WT3      7086     TIP3     OH2      OT      -0.834000       15.9994           0
     45785 WT3      7086     TIP3     H1       HT       0.417000        1.0080           0
     45786 WT3      7086     TIP3     H2       HT       0.417000        1.0080           0
     45787 WT3      7088     TIP3     OH2      OT      -0.834000       15.9994           0
     45788 WT3      7088     TIP3     H1       HT       0.417000        1.0080           0
     45789 WT3      7088     TIP3     H2       HT       0.417000        1.0080           0
     45790 WT3      7089     TIP3     OH2      OT      -0.834000       15.9994           0
     45791 WT3      7089     TIP3     H1       HT       0.417000        1.0080           0
     45792 WT3      7089     TIP3     H2       HT       0.417000        1.0080           0
     45793 WT3      7090     TIP3     OH2      OT      -0.834000       15.9994           0
     45794 WT3      7090     TIP3     H1       HT       0.417000        1.0080           0
     45795 WT3      7090     TIP3     H2       HT       0.417000        1.0080           0
     45796 WT3      7091     TIP3     OH2      OT      -0.834000       15.9994           0
     45797 WT3      7091     TIP3     H1       HT       0.417000        1.0080           0
     45798 WT3      7091     TIP3     H2       HT       0.417000        1.0080           0
     45799 WT3      7092     TIP3     OH2      OT      -0.834000       15.9994           0
     45800 WT3      7092     TIP3     H1       HT       0.417000        1.0080           0
     45801 WT3      7092     TIP3     H2       HT       0.417000        1.0080           0
     45802 WT3      7095     TIP3     OH2      OT      -0.834000       15.9994           0
     45803 WT3      7095     TIP3     H1       HT       0.417000        1.0080           0
     45804 WT3      7095     TIP3     H2       HT       0.417000        1.0080           0
     45805 WT3      7096     TIP3     OH2      OT      -0.834000       15.9994           0
     45806 WT3      7096     TIP3     H1       HT       0.417000        1.0080           0
     45807 WT3      7096     TIP3     H2       HT       0.417000        1.0080           0
     45808 WT3      7097     TIP3     OH2      OT      -0.834000       15.9994           0
     45809 WT3      7097     TIP3     H1       HT       0.417000        1.0080           0
     45810 WT3      7097     TIP3     H2       HT       0.417000        1.0080           0
     45811 WT3      7098     TIP3     OH2      OT      -0.834000       15.9994           0
     45812 WT3      7098     TIP3     H1       HT       0.417000        1.0080           0
     45813 WT3      7098     TIP3     H2       HT       0.417000        1.0080           0
     45814 WT3      7101     TIP3     OH2      OT      -0.834000       15.9994           0
     45815 WT3      7101     TIP3     H1       HT       0.417000        1.0080           0
     45816 WT3      7101     TIP3     H2       HT       0.417000        1.0080           0
     45817 WT3      7102     TIP3     OH2      OT      -0.834000       15.9994           0
     45818 WT3      7102     TIP3     H1       HT       0.417000        1.0080           0
     45819 WT3      7102     TIP3     H2       HT       0.417000        1.0080           0
     45820 WT3      7103     TIP3     OH2      OT      -0.834000       15.9994           0
     45821 WT3      7103     TIP3     H1       HT       0.417000        1.0080           0
     45822 WT3      7103     TIP3     H2       HT       0.417000        1.0080           0
     45823 WT3      7104     TIP3     OH2      OT      -0.834000       15.9994           0
     45824 WT3      7104     TIP3     H1       HT       0.417000        1.0080           0
     45825 WT3      7104     TIP3     H2       HT       0.417000        1.0080           0
     45826 WT3      7105     TIP3     OH2      OT      -0.834000       15.9994           0
     45827 WT3      7105     TIP3     H1       HT       0.417000        1.0080           0
     45828 WT3      7105     TIP3     H2       HT       0.417000        1.0080           0
     45829 WT3      7106     TIP3     OH2      OT      -0.834000       15.9994           0
     45830 WT3      7106     TIP3     H1       HT       0.417000        1.0080           0
     45831 WT3      7106     TIP3     H2       HT       0.417000        1.0080           0
     45832 WT3      7109     TIP3     OH2      OT      -0.834000       15.9994           0
     45833 WT3      7109     TIP3     H1       HT       0.417000        1.0080           0
     45834 WT3      7109     TIP3     H2       HT       0.417000        1.0080           0
     45835 WT3      7110     TIP3     OH2      OT      -0.834000       15.9994           0
     45836 WT3      7110     TIP3     H1       HT       0.417000        1.0080           0
     45837 WT3      7110     TIP3     H2       HT       0.417000        1.0080           0
     45838 WT3      7111     TIP3     OH2      OT      -0.834000       15.9994           0
     45839 WT3      7111     TIP3     H1       HT       0.417000        1.0080           0
     45840 WT3      7111     TIP3     H2       HT       0.417000        1.0080           0
     45841 WT3      7112     TIP3     OH2      OT      -0.834000       15.9994           0
     45842 WT3      7112     TIP3     H1       HT       0.417000        1.0080           0
     45843 WT3      7112     TIP3     H2       HT       0.417000        1.0080           0
     45844 WT3      7113     TIP3     OH2      OT      -0.834000       15.9994           0
     45845 WT3      7113     TIP3     H1       HT       0.417000        1.0080           0
     45846 WT3      7113     TIP3     H2       HT       0.417000        1.0080           0
     45847 WT3      7114     TIP3     OH2      OT      -0.834000       15.9994           0
     45848 WT3      7114     TIP3     H1       HT       0.417000        1.0080           0
     45849 WT3      7114     TIP3     H2       HT       0.417000        1.0080           0
     45850 WT3      7115     TIP3     OH2      OT      -0.834000       15.9994           0
     45851 WT3      7115     TIP3     H1       HT       0.417000        1.0080           0
     45852 WT3      7115     TIP3     H2       HT       0.417000        1.0080           0
     45853 WT3      7117     TIP3     OH2      OT      -0.834000       15.9994           0
     45854 WT3      7117     TIP3     H1       HT       0.417000        1.0080           0
     45855 WT3      7117     TIP3     H2       HT       0.417000        1.0080           0
     45856 WT3      7118     TIP3     OH2      OT      -0.834000       15.9994           0
     45857 WT3      7118     TIP3     H1       HT       0.417000        1.0080           0
     45858 WT3      7118     TIP3     H2       HT       0.417000        1.0080           0
     45859 WT3      7119     TIP3     OH2      OT      -0.834000       15.9994           0
     45860 WT3      7119     TIP3     H1       HT       0.417000        1.0080           0
     45861 WT3      7119     TIP3     H2       HT       0.417000        1.0080           0
     45862 WT3      7120     TIP3     OH2      OT      -0.834000       15.9994           0
     45863 WT3      7120     TIP3     H1       HT       0.417000        1.0080           0
     45864 WT3      7120     TIP3     H2       HT       0.417000        1.0080           0
     45865 WT3      7121     TIP3     OH2      OT      -0.834000       15.9994           0
     45866 WT3      7121     TIP3     H1       HT       0.417000        1.0080           0
     45867 WT3      7121     TIP3     H2       HT       0.417000        1.0080           0
     45868 WT3      7122     TIP3     OH2      OT      -0.834000       15.9994           0
     45869 WT3      7122     TIP3     H1       HT       0.417000        1.0080           0
     45870 WT3      7122     TIP3     H2       HT       0.417000        1.0080           0
     45871 WT3      7123     TIP3     OH2      OT      -0.834000       15.9994           0
     45872 WT3      7123     TIP3     H1       HT       0.417000        1.0080           0
     45873 WT3      7123     TIP3     H2       HT       0.417000        1.0080           0
     45874 WT3      7126     TIP3     OH2      OT      -0.834000       15.9994           0
     45875 WT3      7126     TIP3     H1       HT       0.417000        1.0080           0
     45876 WT3      7126     TIP3     H2       HT       0.417000        1.0080           0
     45877 WT3      7128     TIP3     OH2      OT      -0.834000       15.9994           0
     45878 WT3      7128     TIP3     H1       HT       0.417000        1.0080           0
     45879 WT3      7128     TIP3     H2       HT       0.417000        1.0080           0
     45880 WT3      7129     TIP3     OH2      OT      -0.834000       15.9994           0
     45881 WT3      7129     TIP3     H1       HT       0.417000        1.0080           0
     45882 WT3      7129     TIP3     H2       HT       0.417000        1.0080           0
     45883 WT3      7130     TIP3     OH2      OT      -0.834000       15.9994           0
     45884 WT3      7130     TIP3     H1       HT       0.417000        1.0080           0
     45885 WT3      7130     TIP3     H2       HT       0.417000        1.0080           0
     45886 WT3      7131     TIP3     OH2      OT      -0.834000       15.9994           0
     45887 WT3      7131     TIP3     H1       HT       0.417000        1.0080           0
     45888 WT3      7131     TIP3     H2       HT       0.417000        1.0080           0
     45889 WT3      7132     TIP3     OH2      OT      -0.834000       15.9994           0
     45890 WT3      7132     TIP3     H1       HT       0.417000        1.0080           0
     45891 WT3      7132     TIP3     H2       HT       0.417000        1.0080           0
     45892 WT3      7133     TIP3     OH2      OT      -0.834000       15.9994           0
     45893 WT3      7133     TIP3     H1       HT       0.417000        1.0080           0
     45894 WT3      7133     TIP3     H2       HT       0.417000        1.0080           0
     45895 WT3      7134     TIP3     OH2      OT      -0.834000       15.9994           0
     45896 WT3      7134     TIP3     H1       HT       0.417000        1.0080           0
     45897 WT3      7134     TIP3     H2       HT       0.417000        1.0080           0
     45898 WT3      7135     TIP3     OH2      OT      -0.834000       15.9994           0
     45899 WT3      7135     TIP3     H1       HT       0.417000        1.0080           0
     45900 WT3      7135     TIP3     H2       HT       0.417000        1.0080           0
     45901 WT3      7136     TIP3     OH2      OT      -0.834000       15.9994           0
     45902 WT3      7136     TIP3     H1       HT       0.417000        1.0080           0
     45903 WT3      7136     TIP3     H2       HT       0.417000        1.0080           0
     45904 WT3      7137     TIP3     OH2      OT      -0.834000       15.9994           0
     45905 WT3      7137     TIP3     H1       HT       0.417000        1.0080           0
     45906 WT3      7137     TIP3     H2       HT       0.417000        1.0080           0
     45907 WT3      7139     TIP3     OH2      OT      -0.834000       15.9994           0
     45908 WT3      7139     TIP3     H1       HT       0.417000        1.0080           0
     45909 WT3      7139     TIP3     H2       HT       0.417000        1.0080           0
     45910 WT3      7140     TIP3     OH2      OT      -0.834000       15.9994           0
     45911 WT3      7140     TIP3     H1       HT       0.417000        1.0080           0
     45912 WT3      7140     TIP3     H2       HT       0.417000        1.0080           0
     45913 WT3      7141     TIP3     OH2      OT      -0.834000       15.9994           0
     45914 WT3      7141     TIP3     H1       HT       0.417000        1.0080           0
     45915 WT3      7141     TIP3     H2       HT       0.417000        1.0080           0
     45916 WT3      7142     TIP3     OH2      OT      -0.834000       15.9994           0
     45917 WT3      7142     TIP3     H1       HT       0.417000        1.0080           0
     45918 WT3      7142     TIP3     H2       HT       0.417000        1.0080           0
     45919 WT3      7143     TIP3     OH2      OT      -0.834000       15.9994           0
     45920 WT3      7143     TIP3     H1       HT       0.417000        1.0080           0
     45921 WT3      7143     TIP3     H2       HT       0.417000        1.0080           0
     45922 WT3      7144     TIP3     OH2      OT      -0.834000       15.9994           0
     45923 WT3      7144     TIP3     H1       HT       0.417000        1.0080           0
     45924 WT3      7144     TIP3     H2       HT       0.417000        1.0080           0
     45925 WT3      7145     TIP3     OH2      OT      -0.834000       15.9994           0
     45926 WT3      7145     TIP3     H1       HT       0.417000        1.0080           0
     45927 WT3      7145     TIP3     H2       HT       0.417000        1.0080           0
     45928 WT3      7146     TIP3     OH2      OT      -0.834000       15.9994           0
     45929 WT3      7146     TIP3     H1       HT       0.417000        1.0080           0
     45930 WT3      7146     TIP3     H2       HT       0.417000        1.0080           0
     45931 WT3      7148     TIP3     OH2      OT      -0.834000       15.9994           0
     45932 WT3      7148     TIP3     H1       HT       0.417000        1.0080           0
     45933 WT3      7148     TIP3     H2       HT       0.417000        1.0080           0
     45934 WT3      7150     TIP3     OH2      OT      -0.834000       15.9994           0
     45935 WT3      7150     TIP3     H1       HT       0.417000        1.0080           0
     45936 WT3      7150     TIP3     H2       HT       0.417000        1.0080           0
     45937 WT3      7151     TIP3     OH2      OT      -0.834000       15.9994           0
     45938 WT3      7151     TIP3     H1       HT       0.417000        1.0080           0
     45939 WT3      7151     TIP3     H2       HT       0.417000        1.0080           0
     45940 WT3      7152     TIP3     OH2      OT      -0.834000       15.9994           0
     45941 WT3      7152     TIP3     H1       HT       0.417000        1.0080           0
     45942 WT3      7152     TIP3     H2       HT       0.417000        1.0080           0
     45943 WT3      7153     TIP3     OH2      OT      -0.834000       15.9994           0
     45944 WT3      7153     TIP3     H1       HT       0.417000        1.0080           0
     45945 WT3      7153     TIP3     H2       HT       0.417000        1.0080           0
     45946 WT3      7154     TIP3     OH2      OT      -0.834000       15.9994           0
     45947 WT3      7154     TIP3     H1       HT       0.417000        1.0080           0
     45948 WT3      7154     TIP3     H2       HT       0.417000        1.0080           0
     45949 WT3      7155     TIP3     OH2      OT      -0.834000       15.9994           0
     45950 WT3      7155     TIP3     H1       HT       0.417000        1.0080           0
     45951 WT3      7155     TIP3     H2       HT       0.417000        1.0080           0
     45952 WT3      7156     TIP3     OH2      OT      -0.834000       15.9994           0
     45953 WT3      7156     TIP3     H1       HT       0.417000        1.0080           0
     45954 WT3      7156     TIP3     H2       HT       0.417000        1.0080           0
     45955 WT3      7157     TIP3     OH2      OT      -0.834000       15.9994           0
     45956 WT3      7157     TIP3     H1       HT       0.417000        1.0080           0
     45957 WT3      7157     TIP3     H2       HT       0.417000        1.0080           0
     45958 WT3      7158     TIP3     OH2      OT      -0.834000       15.9994           0
     45959 WT3      7158     TIP3     H1       HT       0.417000        1.0080           0
     45960 WT3      7158     TIP3     H2       HT       0.417000        1.0080           0
     45961 WT3      7159     TIP3     OH2      OT      -0.834000       15.9994           0
     45962 WT3      7159     TIP3     H1       HT       0.417000        1.0080           0
     45963 WT3      7159     TIP3     H2       HT       0.417000        1.0080           0
     45964 WT3      7160     TIP3     OH2      OT      -0.834000       15.9994           0
     45965 WT3      7160     TIP3     H1       HT       0.417000        1.0080           0
     45966 WT3      7160     TIP3     H2       HT       0.417000        1.0080           0
     45967 WT3      7162     TIP3     OH2      OT      -0.834000       15.9994           0
     45968 WT3      7162     TIP3     H1       HT       0.417000        1.0080           0
     45969 WT3      7162     TIP3     H2       HT       0.417000        1.0080           0
     45970 WT3      7163     TIP3     OH2      OT      -0.834000       15.9994           0
     45971 WT3      7163     TIP3     H1       HT       0.417000        1.0080           0
     45972 WT3      7163     TIP3     H2       HT       0.417000        1.0080           0
     45973 WT3      7164     TIP3     OH2      OT      -0.834000       15.9994           0
     45974 WT3      7164     TIP3     H1       HT       0.417000        1.0080           0
     45975 WT3      7164     TIP3     H2       HT       0.417000        1.0080           0
     45976 WT3      7165     TIP3     OH2      OT      -0.834000       15.9994           0
     45977 WT3      7165     TIP3     H1       HT       0.417000        1.0080           0
     45978 WT3      7165     TIP3     H2       HT       0.417000        1.0080           0
     45979 WT3      7166     TIP3     OH2      OT      -0.834000       15.9994           0
     45980 WT3      7166     TIP3     H1       HT       0.417000        1.0080           0
     45981 WT3      7166     TIP3     H2       HT       0.417000        1.0080           0
     45982 WT3      7168     TIP3     OH2      OT      -0.834000       15.9994           0
     45983 WT3      7168     TIP3     H1       HT       0.417000        1.0080           0
     45984 WT3      7168     TIP3     H2       HT       0.417000        1.0080           0
     45985 WT3      7169     TIP3     OH2      OT      -0.834000       15.9994           0
     45986 WT3      7169     TIP3     H1       HT       0.417000        1.0080           0
     45987 WT3      7169     TIP3     H2       HT       0.417000        1.0080           0
     45988 WT3      7170     TIP3     OH2      OT      -0.834000       15.9994           0
     45989 WT3      7170     TIP3     H1       HT       0.417000        1.0080           0
     45990 WT3      7170     TIP3     H2       HT       0.417000        1.0080           0
     45991 WT3      7171     TIP3     OH2      OT      -0.834000       15.9994           0
     45992 WT3      7171     TIP3     H1       HT       0.417000        1.0080           0
     45993 WT3      7171     TIP3     H2       HT       0.417000        1.0080           0
     45994 WT3      7172     TIP3     OH2      OT      -0.834000       15.9994           0
     45995 WT3      7172     TIP3     H1       HT       0.417000        1.0080           0
     45996 WT3      7172     TIP3     H2       HT       0.417000        1.0080           0
     45997 WT3      7173     TIP3     OH2      OT      -0.834000       15.9994           0
     45998 WT3      7173     TIP3     H1       HT       0.417000        1.0080           0
     45999 WT3      7173     TIP3     H2       HT       0.417000        1.0080           0
     46000 WT3      7174     TIP3     OH2      OT      -0.834000       15.9994           0
     46001 WT3      7174     TIP3     H1       HT       0.417000        1.0080           0
     46002 WT3      7174     TIP3     H2       HT       0.417000        1.0080           0
     46003 WT3      7175     TIP3     OH2      OT      -0.834000       15.9994           0
     46004 WT3      7175     TIP3     H1       HT       0.417000        1.0080           0
     46005 WT3      7175     TIP3     H2       HT       0.417000        1.0080           0
     46006 WT3      7176     TIP3     OH2      OT      -0.834000       15.9994           0
     46007 WT3      7176     TIP3     H1       HT       0.417000        1.0080           0
     46008 WT3      7176     TIP3     H2       HT       0.417000        1.0080           0
     46009 WT3      7177     TIP3     OH2      OT      -0.834000       15.9994           0
     46010 WT3      7177     TIP3     H1       HT       0.417000        1.0080           0
     46011 WT3      7177     TIP3     H2       HT       0.417000        1.0080           0
     46012 WT3      7180     TIP3     OH2      OT      -0.834000       15.9994           0
     46013 WT3      7180     TIP3     H1       HT       0.417000        1.0080           0
     46014 WT3      7180     TIP3     H2       HT       0.417000        1.0080           0
     46015 WT3      7181     TIP3     OH2      OT      -0.834000       15.9994           0
     46016 WT3      7181     TIP3     H1       HT       0.417000        1.0080           0
     46017 WT3      7181     TIP3     H2       HT       0.417000        1.0080           0
     46018 WT3      7182     TIP3     OH2      OT      -0.834000       15.9994           0
     46019 WT3      7182     TIP3     H1       HT       0.417000        1.0080           0
     46020 WT3      7182     TIP3     H2       HT       0.417000        1.0080           0
     46021 WT3      7183     TIP3     OH2      OT      -0.834000       15.9994           0
     46022 WT3      7183     TIP3     H1       HT       0.417000        1.0080           0
     46023 WT3      7183     TIP3     H2       HT       0.417000        1.0080           0
     46024 WT3      7185     TIP3     OH2      OT      -0.834000       15.9994           0
     46025 WT3      7185     TIP3     H1       HT       0.417000        1.0080           0
     46026 WT3      7185     TIP3     H2       HT       0.417000        1.0080           0
     46027 WT3      7186     TIP3     OH2      OT      -0.834000       15.9994           0
     46028 WT3      7186     TIP3     H1       HT       0.417000        1.0080           0
     46029 WT3      7186     TIP3     H2       HT       0.417000        1.0080           0
     46030 WT3      7189     TIP3     OH2      OT      -0.834000       15.9994           0
     46031 WT3      7189     TIP3     H1       HT       0.417000        1.0080           0
     46032 WT3      7189     TIP3     H2       HT       0.417000        1.0080           0
     46033 WT3      7191     TIP3     OH2      OT      -0.834000       15.9994           0
     46034 WT3      7191     TIP3     H1       HT       0.417000        1.0080           0
     46035 WT3      7191     TIP3     H2       HT       0.417000        1.0080           0
     46036 WT3      7193     TIP3     OH2      OT      -0.834000       15.9994           0
     46037 WT3      7193     TIP3     H1       HT       0.417000        1.0080           0
     46038 WT3      7193     TIP3     H2       HT       0.417000        1.0080           0
     46039 WT3      7194     TIP3     OH2      OT      -0.834000       15.9994           0
     46040 WT3      7194     TIP3     H1       HT       0.417000        1.0080           0
     46041 WT3      7194     TIP3     H2       HT       0.417000        1.0080           0
     46042 WT3      7195     TIP3     OH2      OT      -0.834000       15.9994           0
     46043 WT3      7195     TIP3     H1       HT       0.417000        1.0080           0
     46044 WT3      7195     TIP3     H2       HT       0.417000        1.0080           0
     46045 WT3      7196     TIP3     OH2      OT      -0.834000       15.9994           0
     46046 WT3      7196     TIP3     H1       HT       0.417000        1.0080           0
     46047 WT3      7196     TIP3     H2       HT       0.417000        1.0080           0
     46048 WT3      7197     TIP3     OH2      OT      -0.834000       15.9994           0
     46049 WT3      7197     TIP3     H1       HT       0.417000        1.0080           0
     46050 WT3      7197     TIP3     H2       HT       0.417000        1.0080           0
     46051 WT3      7199     TIP3     OH2      OT      -0.834000       15.9994           0
     46052 WT3      7199     TIP3     H1       HT       0.417000        1.0080           0
     46053 WT3      7199     TIP3     H2       HT       0.417000        1.0080           0
     46054 WT3      7200     TIP3     OH2      OT      -0.834000       15.9994           0
     46055 WT3      7200     TIP3     H1       HT       0.417000        1.0080           0
     46056 WT3      7200     TIP3     H2       HT       0.417000        1.0080           0
     46057 WT3      7202     TIP3     OH2      OT      -0.834000       15.9994           0
     46058 WT3      7202     TIP3     H1       HT       0.417000        1.0080           0
     46059 WT3      7202     TIP3     H2       HT       0.417000        1.0080           0
     46060 WT3      7204     TIP3     OH2      OT      -0.834000       15.9994           0
     46061 WT3      7204     TIP3     H1       HT       0.417000        1.0080           0
     46062 WT3      7204     TIP3     H2       HT       0.417000        1.0080           0
     46063 WT3      7205     TIP3     OH2      OT      -0.834000       15.9994           0
     46064 WT3      7205     TIP3     H1       HT       0.417000        1.0080           0
     46065 WT3      7205     TIP3     H2       HT       0.417000        1.0080           0
     46066 WT3      7206     TIP3     OH2      OT      -0.834000       15.9994           0
     46067 WT3      7206     TIP3     H1       HT       0.417000        1.0080           0
     46068 WT3      7206     TIP3     H2       HT       0.417000        1.0080           0
     46069 WT3      7208     TIP3     OH2      OT      -0.834000       15.9994           0
     46070 WT3      7208     TIP3     H1       HT       0.417000        1.0080           0
     46071 WT3      7208     TIP3     H2       HT       0.417000        1.0080           0
     46072 WT3      7209     TIP3     OH2      OT      -0.834000       15.9994           0
     46073 WT3      7209     TIP3     H1       HT       0.417000        1.0080           0
     46074 WT3      7209     TIP3     H2       HT       0.417000        1.0080           0
     46075 WT3      7210     TIP3     OH2      OT      -0.834000       15.9994           0
     46076 WT3      7210     TIP3     H1       HT       0.417000        1.0080           0
     46077 WT3      7210     TIP3     H2       HT       0.417000        1.0080           0
     46078 WT3      7211     TIP3     OH2      OT      -0.834000       15.9994           0
     46079 WT3      7211     TIP3     H1       HT       0.417000        1.0080           0
     46080 WT3      7211     TIP3     H2       HT       0.417000        1.0080           0
     46081 WT3      7213     TIP3     OH2      OT      -0.834000       15.9994           0
     46082 WT3      7213     TIP3     H1       HT       0.417000        1.0080           0
     46083 WT3      7213     TIP3     H2       HT       0.417000        1.0080           0
     46084 WT3      7215     TIP3     OH2      OT      -0.834000       15.9994           0
     46085 WT3      7215     TIP3     H1       HT       0.417000        1.0080           0
     46086 WT3      7215     TIP3     H2       HT       0.417000        1.0080           0
     46087 WT3      7216     TIP3     OH2      OT      -0.834000       15.9994           0
     46088 WT3      7216     TIP3     H1       HT       0.417000        1.0080           0
     46089 WT3      7216     TIP3     H2       HT       0.417000        1.0080           0
     46090 WT3      7217     TIP3     OH2      OT      -0.834000       15.9994           0
     46091 WT3      7217     TIP3     H1       HT       0.417000        1.0080           0
     46092 WT3      7217     TIP3     H2       HT       0.417000        1.0080           0
     46093 WT3      7219     TIP3     OH2      OT      -0.834000       15.9994           0
     46094 WT3      7219     TIP3     H1       HT       0.417000        1.0080           0
     46095 WT3      7219     TIP3     H2       HT       0.417000        1.0080           0
     46096 WT3      7222     TIP3     OH2      OT      -0.834000       15.9994           0
     46097 WT3      7222     TIP3     H1       HT       0.417000        1.0080           0
     46098 WT3      7222     TIP3     H2       HT       0.417000        1.0080           0
     46099 WT3      7223     TIP3     OH2      OT      -0.834000       15.9994           0
     46100 WT3      7223     TIP3     H1       HT       0.417000        1.0080           0
     46101 WT3      7223     TIP3     H2       HT       0.417000        1.0080           0
     46102 WT3      7224     TIP3     OH2      OT      -0.834000       15.9994           0
     46103 WT3      7224     TIP3     H1       HT       0.417000        1.0080           0
     46104 WT3      7224     TIP3     H2       HT       0.417000        1.0080           0
     46105 WT3      7227     TIP3     OH2      OT      -0.834000       15.9994           0
     46106 WT3      7227     TIP3     H1       HT       0.417000        1.0080           0
     46107 WT3      7227     TIP3     H2       HT       0.417000        1.0080           0
     46108 WT3      7228     TIP3     OH2      OT      -0.834000       15.9994           0
     46109 WT3      7228     TIP3     H1       HT       0.417000        1.0080           0
     46110 WT3      7228     TIP3     H2       HT       0.417000        1.0080           0
     46111 WT3      7229     TIP3     OH2      OT      -0.834000       15.9994           0
     46112 WT3      7229     TIP3     H1       HT       0.417000        1.0080           0
     46113 WT3      7229     TIP3     H2       HT       0.417000        1.0080           0
     46114 WT3      7234     TIP3     OH2      OT      -0.834000       15.9994           0
     46115 WT3      7234     TIP3     H1       HT       0.417000        1.0080           0
     46116 WT3      7234     TIP3     H2       HT       0.417000        1.0080           0
     46117 WT3      7238     TIP3     OH2      OT      -0.834000       15.9994           0
     46118 WT3      7238     TIP3     H1       HT       0.417000        1.0080           0
     46119 WT3      7238     TIP3     H2       HT       0.417000        1.0080           0
     46120 WT3      7239     TIP3     OH2      OT      -0.834000       15.9994           0
     46121 WT3      7239     TIP3     H1       HT       0.417000        1.0080           0
     46122 WT3      7239     TIP3     H2       HT       0.417000        1.0080           0
     46123 WT3      7241     TIP3     OH2      OT      -0.834000       15.9994           0
     46124 WT3      7241     TIP3     H1       HT       0.417000        1.0080           0
     46125 WT3      7241     TIP3     H2       HT       0.417000        1.0080           0
     46126 WT3      7243     TIP3     OH2      OT      -0.834000       15.9994           0
     46127 WT3      7243     TIP3     H1       HT       0.417000        1.0080           0
     46128 WT3      7243     TIP3     H2       HT       0.417000        1.0080           0
     46129 WT3      7245     TIP3     OH2      OT      -0.834000       15.9994           0
     46130 WT3      7245     TIP3     H1       HT       0.417000        1.0080           0
     46131 WT3      7245     TIP3     H2       HT       0.417000        1.0080           0
     46132 WT3      7249     TIP3     OH2      OT      -0.834000       15.9994           0
     46133 WT3      7249     TIP3     H1       HT       0.417000        1.0080           0
     46134 WT3      7249     TIP3     H2       HT       0.417000        1.0080           0
     46135 WT3      7252     TIP3     OH2      OT      -0.834000       15.9994           0
     46136 WT3      7252     TIP3     H1       HT       0.417000        1.0080           0
     46137 WT3      7252     TIP3     H2       HT       0.417000        1.0080           0
     46138 WT3      7254     TIP3     OH2      OT      -0.834000       15.9994           0
     46139 WT3      7254     TIP3     H1       HT       0.417000        1.0080           0
     46140 WT3      7254     TIP3     H2       HT       0.417000        1.0080           0
     46141 WT3      7259     TIP3     OH2      OT      -0.834000       15.9994           0
     46142 WT3      7259     TIP3     H1       HT       0.417000        1.0080           0
     46143 WT3      7259     TIP3     H2       HT       0.417000        1.0080           0
     46144 WT3      7260     TIP3     OH2      OT      -0.834000       15.9994           0
     46145 WT3      7260     TIP3     H1       HT       0.417000        1.0080           0
     46146 WT3      7260     TIP3     H2       HT       0.417000        1.0080           0
     46147 WT3      7264     TIP3     OH2      OT      -0.834000       15.9994           0
     46148 WT3      7264     TIP3     H1       HT       0.417000        1.0080           0
     46149 WT3      7264     TIP3     H2       HT       0.417000        1.0080           0
     46150 WT3      7270     TIP3     OH2      OT      -0.834000       15.9994           0
     46151 WT3      7270     TIP3     H1       HT       0.417000        1.0080           0
     46152 WT3      7270     TIP3     H2       HT       0.417000        1.0080           0
     46153 WT3      7280     TIP3     OH2      OT      -0.834000       15.9994           0
     46154 WT3      7280     TIP3     H1       HT       0.417000        1.0080           0
     46155 WT3      7280     TIP3     H2       HT       0.417000        1.0080           0
     46156 WT3      7281     TIP3     OH2      OT      -0.834000       15.9994           0
     46157 WT3      7281     TIP3     H1       HT       0.417000        1.0080           0
     46158 WT3      7281     TIP3     H2       HT       0.417000        1.0080           0
     46159 WT3      7286     TIP3     OH2      OT      -0.834000       15.9994           0
     46160 WT3      7286     TIP3     H1       HT       0.417000        1.0080           0
     46161 WT3      7286     TIP3     H2       HT       0.417000        1.0080           0
     46162 WT3      7295     TIP3     OH2      OT      -0.834000       15.9994           0
     46163 WT3      7295     TIP3     H1       HT       0.417000        1.0080           0
     46164 WT3      7295     TIP3     H2       HT       0.417000        1.0080           0
     46165 WT3      7299     TIP3     OH2      OT      -0.834000       15.9994           0
     46166 WT3      7299     TIP3     H1       HT       0.417000        1.0080           0
     46167 WT3      7299     TIP3     H2       HT       0.417000        1.0080           0
     46168 WT3      7305     TIP3     OH2      OT      -0.834000       15.9994           0
     46169 WT3      7305     TIP3     H1       HT       0.417000        1.0080           0
     46170 WT3      7305     TIP3     H2       HT       0.417000        1.0080           0
     46171 WT3      7398     TIP3     OH2      OT      -0.834000       15.9994           0
     46172 WT3      7398     TIP3     H1       HT       0.417000        1.0080           0
     46173 WT3      7398     TIP3     H2       HT       0.417000        1.0080           0
     46174 WT3      7408     TIP3     OH2      OT      -0.834000       15.9994           0
     46175 WT3      7408     TIP3     H1       HT       0.417000        1.0080           0
     46176 WT3      7408     TIP3     H2       HT       0.417000        1.0080           0
     46177 WT3      7415     TIP3     OH2      OT      -0.834000       15.9994           0
     46178 WT3      7415     TIP3     H1       HT       0.417000        1.0080           0
     46179 WT3      7415     TIP3     H2       HT       0.417000        1.0080           0
     46180 WT3      7418     TIP3     OH2      OT      -0.834000       15.9994           0
     46181 WT3      7418     TIP3     H1       HT       0.417000        1.0080           0
     46182 WT3      7418     TIP3     H2       HT       0.417000        1.0080           0
     46183 WT3      7431     TIP3     OH2      OT      -0.834000       15.9994           0
     46184 WT3      7431     TIP3     H1       HT       0.417000        1.0080           0
     46185 WT3      7431     TIP3     H2       HT       0.417000        1.0080           0
     46186 WT3      7435     TIP3     OH2      OT      -0.834000       15.9994           0
     46187 WT3      7435     TIP3     H1       HT       0.417000        1.0080           0
     46188 WT3      7435     TIP3     H2       HT       0.417000        1.0080           0
     46189 WT3      7436     TIP3     OH2      OT      -0.834000       15.9994           0
     46190 WT3      7436     TIP3     H1       HT       0.417000        1.0080           0
     46191 WT3      7436     TIP3     H2       HT       0.417000        1.0080           0
     46192 WT3      7437     TIP3     OH2      OT      -0.834000       15.9994           0
     46193 WT3      7437     TIP3     H1       HT       0.417000        1.0080           0
     46194 WT3      7437     TIP3     H2       HT       0.417000        1.0080           0
     46195 WT3      7439     TIP3     OH2      OT      -0.834000       15.9994           0
     46196 WT3      7439     TIP3     H1       HT       0.417000        1.0080           0
     46197 WT3      7439     TIP3     H2       HT       0.417000        1.0080           0
     46198 WT3      7451     TIP3     OH2      OT      -0.834000       15.9994           0
     46199 WT3      7451     TIP3     H1       HT       0.417000        1.0080           0
     46200 WT3      7451     TIP3     H2       HT       0.417000        1.0080           0
     46201 WT3      7455     TIP3     OH2      OT      -0.834000       15.9994           0
     46202 WT3      7455     TIP3     H1       HT       0.417000        1.0080           0
     46203 WT3      7455     TIP3     H2       HT       0.417000        1.0080           0
     46204 WT3      7456     TIP3     OH2      OT      -0.834000       15.9994           0
     46205 WT3      7456     TIP3     H1       HT       0.417000        1.0080           0
     46206 WT3      7456     TIP3     H2       HT       0.417000        1.0080           0
     46207 WT3      7458     TIP3     OH2      OT      -0.834000       15.9994           0
     46208 WT3      7458     TIP3     H1       HT       0.417000        1.0080           0
     46209 WT3      7458     TIP3     H2       HT       0.417000        1.0080           0
     46210 WT3      7461     TIP3     OH2      OT      -0.834000       15.9994           0
     46211 WT3      7461     TIP3     H1       HT       0.417000        1.0080           0
     46212 WT3      7461     TIP3     H2       HT       0.417000        1.0080           0
     46213 WT3      7467     TIP3     OH2      OT      -0.834000       15.9994           0
     46214 WT3      7467     TIP3     H1       HT       0.417000        1.0080           0
     46215 WT3      7467     TIP3     H2       HT       0.417000        1.0080           0
     46216 WT3      7471     TIP3     OH2      OT      -0.834000       15.9994           0
     46217 WT3      7471     TIP3     H1       HT       0.417000        1.0080           0
     46218 WT3      7471     TIP3     H2       HT       0.417000        1.0080           0
     46219 WT3      7472     TIP3     OH2      OT      -0.834000       15.9994           0
     46220 WT3      7472     TIP3     H1       HT       0.417000        1.0080           0
     46221 WT3      7472     TIP3     H2       HT       0.417000        1.0080           0
     46222 WT3      7473     TIP3     OH2      OT      -0.834000       15.9994           0
     46223 WT3      7473     TIP3     H1       HT       0.417000        1.0080           0
     46224 WT3      7473     TIP3     H2       HT       0.417000        1.0080           0
     46225 WT3      7474     TIP3     OH2      OT      -0.834000       15.9994           0
     46226 WT3      7474     TIP3     H1       HT       0.417000        1.0080           0
     46227 WT3      7474     TIP3     H2       HT       0.417000        1.0080           0
     46228 WT3      7476     TIP3     OH2      OT      -0.834000       15.9994           0
     46229 WT3      7476     TIP3     H1       HT       0.417000        1.0080           0
     46230 WT3      7476     TIP3     H2       HT       0.417000        1.0080           0
     46231 WT3      7479     TIP3     OH2      OT      -0.834000       15.9994           0
     46232 WT3      7479     TIP3     H1       HT       0.417000        1.0080           0
     46233 WT3      7479     TIP3     H2       HT       0.417000        1.0080           0
     46234 WT3      7480     TIP3     OH2      OT      -0.834000       15.9994           0
     46235 WT3      7480     TIP3     H1       HT       0.417000        1.0080           0
     46236 WT3      7480     TIP3     H2       HT       0.417000        1.0080           0
     46237 WT3      7481     TIP3     OH2      OT      -0.834000       15.9994           0
     46238 WT3      7481     TIP3     H1       HT       0.417000        1.0080           0
     46239 WT3      7481     TIP3     H2       HT       0.417000        1.0080           0
     46240 WT3      7483     TIP3     OH2      OT      -0.834000       15.9994           0
     46241 WT3      7483     TIP3     H1       HT       0.417000        1.0080           0
     46242 WT3      7483     TIP3     H2       HT       0.417000        1.0080           0
     46243 WT3      7486     TIP3     OH2      OT      -0.834000       15.9994           0
     46244 WT3      7486     TIP3     H1       HT       0.417000        1.0080           0
     46245 WT3      7486     TIP3     H2       HT       0.417000        1.0080           0
     46246 WT3      7490     TIP3     OH2      OT      -0.834000       15.9994           0
     46247 WT3      7490     TIP3     H1       HT       0.417000        1.0080           0
     46248 WT3      7490     TIP3     H2       HT       0.417000        1.0080           0
     46249 WT3      7492     TIP3     OH2      OT      -0.834000       15.9994           0
     46250 WT3      7492     TIP3     H1       HT       0.417000        1.0080           0
     46251 WT3      7492     TIP3     H2       HT       0.417000        1.0080           0
     46252 WT3      7493     TIP3     OH2      OT      -0.834000       15.9994           0
     46253 WT3      7493     TIP3     H1       HT       0.417000        1.0080           0
     46254 WT3      7493     TIP3     H2       HT       0.417000        1.0080           0
     46255 WT3      7494     TIP3     OH2      OT      -0.834000       15.9994           0
     46256 WT3      7494     TIP3     H1       HT       0.417000        1.0080           0
     46257 WT3      7494     TIP3     H2       HT       0.417000        1.0080           0
     46258 WT3      7495     TIP3     OH2      OT      -0.834000       15.9994           0
     46259 WT3      7495     TIP3     H1       HT       0.417000        1.0080           0
     46260 WT3      7495     TIP3     H2       HT       0.417000        1.0080           0
     46261 WT3      7497     TIP3     OH2      OT      -0.834000       15.9994           0
     46262 WT3      7497     TIP3     H1       HT       0.417000        1.0080           0
     46263 WT3      7497     TIP3     H2       HT       0.417000        1.0080           0
     46264 WT3      7498     TIP3     OH2      OT      -0.834000       15.9994           0
     46265 WT3      7498     TIP3     H1       HT       0.417000        1.0080           0
     46266 WT3      7498     TIP3     H2       HT       0.417000        1.0080           0
     46267 WT3      7500     TIP3     OH2      OT      -0.834000       15.9994           0
     46268 WT3      7500     TIP3     H1       HT       0.417000        1.0080           0
     46269 WT3      7500     TIP3     H2       HT       0.417000        1.0080           0
     46270 WT3      7501     TIP3     OH2      OT      -0.834000       15.9994           0
     46271 WT3      7501     TIP3     H1       HT       0.417000        1.0080           0
     46272 WT3      7501     TIP3     H2       HT       0.417000        1.0080           0
     46273 WT3      7503     TIP3     OH2      OT      -0.834000       15.9994           0
     46274 WT3      7503     TIP3     H1       HT       0.417000        1.0080           0
     46275 WT3      7503     TIP3     H2       HT       0.417000        1.0080           0
     46276 WT3      7504     TIP3     OH2      OT      -0.834000       15.9994           0
     46277 WT3      7504     TIP3     H1       HT       0.417000        1.0080           0
     46278 WT3      7504     TIP3     H2       HT       0.417000        1.0080           0
     46279 WT3      7505     TIP3     OH2      OT      -0.834000       15.9994           0
     46280 WT3      7505     TIP3     H1       HT       0.417000        1.0080           0
     46281 WT3      7505     TIP3     H2       HT       0.417000        1.0080           0
     46282 WT3      7506     TIP3     OH2      OT      -0.834000       15.9994           0
     46283 WT3      7506     TIP3     H1       HT       0.417000        1.0080           0
     46284 WT3      7506     TIP3     H2       HT       0.417000        1.0080           0
     46285 WT3      7507     TIP3     OH2      OT      -0.834000       15.9994           0
     46286 WT3      7507     TIP3     H1       HT       0.417000        1.0080           0
     46287 WT3      7507     TIP3     H2       HT       0.417000        1.0080           0
     46288 WT3      7508     TIP3     OH2      OT      -0.834000       15.9994           0
     46289 WT3      7508     TIP3     H1       HT       0.417000        1.0080           0
     46290 WT3      7508     TIP3     H2       HT       0.417000        1.0080           0
     46291 WT3      7509     TIP3     OH2      OT      -0.834000       15.9994           0
     46292 WT3      7509     TIP3     H1       HT       0.417000        1.0080           0
     46293 WT3      7509     TIP3     H2       HT       0.417000        1.0080           0
     46294 WT3      7510     TIP3     OH2      OT      -0.834000       15.9994           0
     46295 WT3      7510     TIP3     H1       HT       0.417000        1.0080           0
     46296 WT3      7510     TIP3     H2       HT       0.417000        1.0080           0
     46297 WT3      7511     TIP3     OH2      OT      -0.834000       15.9994           0
     46298 WT3      7511     TIP3     H1       HT       0.417000        1.0080           0
     46299 WT3      7511     TIP3     H2       HT       0.417000        1.0080           0
     46300 WT3      7513     TIP3     OH2      OT      -0.834000       15.9994           0
     46301 WT3      7513     TIP3     H1       HT       0.417000        1.0080           0
     46302 WT3      7513     TIP3     H2       HT       0.417000        1.0080           0
     46303 WT3      7516     TIP3     OH2      OT      -0.834000       15.9994           0
     46304 WT3      7516     TIP3     H1       HT       0.417000        1.0080           0
     46305 WT3      7516     TIP3     H2       HT       0.417000        1.0080           0
     46306 WT3      7519     TIP3     OH2      OT      -0.834000       15.9994           0
     46307 WT3      7519     TIP3     H1       HT       0.417000        1.0080           0
     46308 WT3      7519     TIP3     H2       HT       0.417000        1.0080           0
     46309 WT3      7520     TIP3     OH2      OT      -0.834000       15.9994           0
     46310 WT3      7520     TIP3     H1       HT       0.417000        1.0080           0
     46311 WT3      7520     TIP3     H2       HT       0.417000        1.0080           0
     46312 WT3      7522     TIP3     OH2      OT      -0.834000       15.9994           0
     46313 WT3      7522     TIP3     H1       HT       0.417000        1.0080           0
     46314 WT3      7522     TIP3     H2       HT       0.417000        1.0080           0
     46315 WT3      7523     TIP3     OH2      OT      -0.834000       15.9994           0
     46316 WT3      7523     TIP3     H1       HT       0.417000        1.0080           0
     46317 WT3      7523     TIP3     H2       HT       0.417000        1.0080           0
     46318 WT3      7524     TIP3     OH2      OT      -0.834000       15.9994           0
     46319 WT3      7524     TIP3     H1       HT       0.417000        1.0080           0
     46320 WT3      7524     TIP3     H2       HT       0.417000        1.0080           0
     46321 WT3      7525     TIP3     OH2      OT      -0.834000       15.9994           0
     46322 WT3      7525     TIP3     H1       HT       0.417000        1.0080           0
     46323 WT3      7525     TIP3     H2       HT       0.417000        1.0080           0
     46324 WT3      7526     TIP3     OH2      OT      -0.834000       15.9994           0
     46325 WT3      7526     TIP3     H1       HT       0.417000        1.0080           0
     46326 WT3      7526     TIP3     H2       HT       0.417000        1.0080           0
     46327 WT3      7527     TIP3     OH2      OT      -0.834000       15.9994           0
     46328 WT3      7527     TIP3     H1       HT       0.417000        1.0080           0
     46329 WT3      7527     TIP3     H2       HT       0.417000        1.0080           0
     46330 WT3      7528     TIP3     OH2      OT      -0.834000       15.9994           0
     46331 WT3      7528     TIP3     H1       HT       0.417000        1.0080           0
     46332 WT3      7528     TIP3     H2       HT       0.417000        1.0080           0
     46333 WT3      7529     TIP3     OH2      OT      -0.834000       15.9994           0
     46334 WT3      7529     TIP3     H1       HT       0.417000        1.0080           0
     46335 WT3      7529     TIP3     H2       HT       0.417000        1.0080           0
     46336 WT3      7530     TIP3     OH2      OT      -0.834000       15.9994           0
     46337 WT3      7530     TIP3     H1       HT       0.417000        1.0080           0
     46338 WT3      7530     TIP3     H2       HT       0.417000        1.0080           0
     46339 WT3      7531     TIP3     OH2      OT      -0.834000       15.9994           0
     46340 WT3      7531     TIP3     H1       HT       0.417000        1.0080           0
     46341 WT3      7531     TIP3     H2       HT       0.417000        1.0080           0
     46342 WT3      7532     TIP3     OH2      OT      -0.834000       15.9994           0
     46343 WT3      7532     TIP3     H1       HT       0.417000        1.0080           0
     46344 WT3      7532     TIP3     H2       HT       0.417000        1.0080           0
     46345 WT3      7537     TIP3     OH2      OT      -0.834000       15.9994           0
     46346 WT3      7537     TIP3     H1       HT       0.417000        1.0080           0
     46347 WT3      7537     TIP3     H2       HT       0.417000        1.0080           0
     46348 WT3      7538     TIP3     OH2      OT      -0.834000       15.9994           0
     46349 WT3      7538     TIP3     H1       HT       0.417000        1.0080           0
     46350 WT3      7538     TIP3     H2       HT       0.417000        1.0080           0
     46351 WT3      7539     TIP3     OH2      OT      -0.834000       15.9994           0
     46352 WT3      7539     TIP3     H1       HT       0.417000        1.0080           0
     46353 WT3      7539     TIP3     H2       HT       0.417000        1.0080           0
     46354 WT3      7540     TIP3     OH2      OT      -0.834000       15.9994           0
     46355 WT3      7540     TIP3     H1       HT       0.417000        1.0080           0
     46356 WT3      7540     TIP3     H2       HT       0.417000        1.0080           0
     46357 WT3      7541     TIP3     OH2      OT      -0.834000       15.9994           0
     46358 WT3      7541     TIP3     H1       HT       0.417000        1.0080           0
     46359 WT3      7541     TIP3     H2       HT       0.417000        1.0080           0
     46360 WT3      7542     TIP3     OH2      OT      -0.834000       15.9994           0
     46361 WT3      7542     TIP3     H1       HT       0.417000        1.0080           0
     46362 WT3      7542     TIP3     H2       HT       0.417000        1.0080           0
     46363 WT3      7544     TIP3     OH2      OT      -0.834000       15.9994           0
     46364 WT3      7544     TIP3     H1       HT       0.417000        1.0080           0
     46365 WT3      7544     TIP3     H2       HT       0.417000        1.0080           0
     46366 WT3      7546     TIP3     OH2      OT      -0.834000       15.9994           0
     46367 WT3      7546     TIP3     H1       HT       0.417000        1.0080           0
     46368 WT3      7546     TIP3     H2       HT       0.417000        1.0080           0
     46369 WT3      7547     TIP3     OH2      OT      -0.834000       15.9994           0
     46370 WT3      7547     TIP3     H1       HT       0.417000        1.0080           0
     46371 WT3      7547     TIP3     H2       HT       0.417000        1.0080           0
     46372 WT3      7550     TIP3     OH2      OT      -0.834000       15.9994           0
     46373 WT3      7550     TIP3     H1       HT       0.417000        1.0080           0
     46374 WT3      7550     TIP3     H2       HT       0.417000        1.0080           0
     46375 WT3      7551     TIP3     OH2      OT      -0.834000       15.9994           0
     46376 WT3      7551     TIP3     H1       HT       0.417000        1.0080           0
     46377 WT3      7551     TIP3     H2       HT       0.417000        1.0080           0
     46378 WT3      7552     TIP3     OH2      OT      -0.834000       15.9994           0
     46379 WT3      7552     TIP3     H1       HT       0.417000        1.0080           0
     46380 WT3      7552     TIP3     H2       HT       0.417000        1.0080           0
     46381 WT3      7553     TIP3     OH2      OT      -0.834000       15.9994           0
     46382 WT3      7553     TIP3     H1       HT       0.417000        1.0080           0
     46383 WT3      7553     TIP3     H2       HT       0.417000        1.0080           0
     46384 WT3      7554     TIP3     OH2      OT      -0.834000       15.9994           0
     46385 WT3      7554     TIP3     H1       HT       0.417000        1.0080           0
     46386 WT3      7554     TIP3     H2       HT       0.417000        1.0080           0
     46387 WT3      7555     TIP3     OH2      OT      -0.834000       15.9994           0
     46388 WT3      7555     TIP3     H1       HT       0.417000        1.0080           0
     46389 WT3      7555     TIP3     H2       HT       0.417000        1.0080           0
     46390 WT3      7556     TIP3     OH2      OT      -0.834000       15.9994           0
     46391 WT3      7556     TIP3     H1       HT       0.417000        1.0080           0
     46392 WT3      7556     TIP3     H2       HT       0.417000        1.0080           0
     46393 WT3      7557     TIP3     OH2      OT      -0.834000       15.9994           0
     46394 WT3      7557     TIP3     H1       HT       0.417000        1.0080           0
     46395 WT3      7557     TIP3     H2       HT       0.417000        1.0080           0
     46396 WT3      7558     TIP3     OH2      OT      -0.834000       15.9994           0
     46397 WT3      7558     TIP3     H1       HT       0.417000        1.0080           0
     46398 WT3      7558     TIP3     H2       HT       0.417000        1.0080           0
     46399 WT3      7560     TIP3     OH2      OT      -0.834000       15.9994           0
     46400 WT3      7560     TIP3     H1       HT       0.417000        1.0080           0
     46401 WT3      7560     TIP3     H2       HT       0.417000        1.0080           0
     46402 WT3      7561     TIP3     OH2      OT      -0.834000       15.9994           0
     46403 WT3      7561     TIP3     H1       HT       0.417000        1.0080           0
     46404 WT3      7561     TIP3     H2       HT       0.417000        1.0080           0
     46405 WT3      7562     TIP3     OH2      OT      -0.834000       15.9994           0
     46406 WT3      7562     TIP3     H1       HT       0.417000        1.0080           0
     46407 WT3      7562     TIP3     H2       HT       0.417000        1.0080           0
     46408 WT3      7563     TIP3     OH2      OT      -0.834000       15.9994           0
     46409 WT3      7563     TIP3     H1       HT       0.417000        1.0080           0
     46410 WT3      7563     TIP3     H2       HT       0.417000        1.0080           0
     46411 WT3      7564     TIP3     OH2      OT      -0.834000       15.9994           0
     46412 WT3      7564     TIP3     H1       HT       0.417000        1.0080           0
     46413 WT3      7564     TIP3     H2       HT       0.417000        1.0080           0
     46414 WT3      7567     TIP3     OH2      OT      -0.834000       15.9994           0
     46415 WT3      7567     TIP3     H1       HT       0.417000        1.0080           0
     46416 WT3      7567     TIP3     H2       HT       0.417000        1.0080           0
     46417 WT3      7568     TIP3     OH2      OT      -0.834000       15.9994           0
     46418 WT3      7568     TIP3     H1       HT       0.417000        1.0080           0
     46419 WT3      7568     TIP3     H2       HT       0.417000        1.0080           0
     46420 WT3      7570     TIP3     OH2      OT      -0.834000       15.9994           0
     46421 WT3      7570     TIP3     H1       HT       0.417000        1.0080           0
     46422 WT3      7570     TIP3     H2       HT       0.417000        1.0080           0
     46423 WT3      7571     TIP3     OH2      OT      -0.834000       15.9994           0
     46424 WT3      7571     TIP3     H1       HT       0.417000        1.0080           0
     46425 WT3      7571     TIP3     H2       HT       0.417000        1.0080           0
     46426 WT3      7572     TIP3     OH2      OT      -0.834000       15.9994           0
     46427 WT3      7572     TIP3     H1       HT       0.417000        1.0080           0
     46428 WT3      7572     TIP3     H2       HT       0.417000        1.0080           0
     46429 WT3      7573     TIP3     OH2      OT      -0.834000       15.9994           0
     46430 WT3      7573     TIP3     H1       HT       0.417000        1.0080           0
     46431 WT3      7573     TIP3     H2       HT       0.417000        1.0080           0
     46432 WT3      7575     TIP3     OH2      OT      -0.834000       15.9994           0
     46433 WT3      7575     TIP3     H1       HT       0.417000        1.0080           0
     46434 WT3      7575     TIP3     H2       HT       0.417000        1.0080           0
     46435 WT3      7576     TIP3     OH2      OT      -0.834000       15.9994           0
     46436 WT3      7576     TIP3     H1       HT       0.417000        1.0080           0
     46437 WT3      7576     TIP3     H2       HT       0.417000        1.0080           0
     46438 WT3      7579     TIP3     OH2      OT      -0.834000       15.9994           0
     46439 WT3      7579     TIP3     H1       HT       0.417000        1.0080           0
     46440 WT3      7579     TIP3     H2       HT       0.417000        1.0080           0
     46441 WT3      7580     TIP3     OH2      OT      -0.834000       15.9994           0
     46442 WT3      7580     TIP3     H1       HT       0.417000        1.0080           0
     46443 WT3      7580     TIP3     H2       HT       0.417000        1.0080           0
     46444 WT3      7581     TIP3     OH2      OT      -0.834000       15.9994           0
     46445 WT3      7581     TIP3     H1       HT       0.417000        1.0080           0
     46446 WT3      7581     TIP3     H2       HT       0.417000        1.0080           0
     46447 WT3      7584     TIP3     OH2      OT      -0.834000       15.9994           0
     46448 WT3      7584     TIP3     H1       HT       0.417000        1.0080           0
     46449 WT3      7584     TIP3     H2       HT       0.417000        1.0080           0
     46450 WT3      7585     TIP3     OH2      OT      -0.834000       15.9994           0
     46451 WT3      7585     TIP3     H1       HT       0.417000        1.0080           0
     46452 WT3      7585     TIP3     H2       HT       0.417000        1.0080           0
     46453 WT3      7586     TIP3     OH2      OT      -0.834000       15.9994           0
     46454 WT3      7586     TIP3     H1       HT       0.417000        1.0080           0
     46455 WT3      7586     TIP3     H2       HT       0.417000        1.0080           0
     46456 WT3      7588     TIP3     OH2      OT      -0.834000       15.9994           0
     46457 WT3      7588     TIP3     H1       HT       0.417000        1.0080           0
     46458 WT3      7588     TIP3     H2       HT       0.417000        1.0080           0
     46459 WT3      7589     TIP3     OH2      OT      -0.834000       15.9994           0
     46460 WT3      7589     TIP3     H1       HT       0.417000        1.0080           0
     46461 WT3      7589     TIP3     H2       HT       0.417000        1.0080           0
     46462 WT3      7591     TIP3     OH2      OT      -0.834000       15.9994           0
     46463 WT3      7591     TIP3     H1       HT       0.417000        1.0080           0
     46464 WT3      7591     TIP3     H2       HT       0.417000        1.0080           0
     46465 WT3      7593     TIP3     OH2      OT      -0.834000       15.9994           0
     46466 WT3      7593     TIP3     H1       HT       0.417000        1.0080           0
     46467 WT3      7593     TIP3     H2       HT       0.417000        1.0080           0
     46468 WT3      7594     TIP3     OH2      OT      -0.834000       15.9994           0
     46469 WT3      7594     TIP3     H1       HT       0.417000        1.0080           0
     46470 WT3      7594     TIP3     H2       HT       0.417000        1.0080           0
     46471 WT3      7595     TIP3     OH2      OT      -0.834000       15.9994           0
     46472 WT3      7595     TIP3     H1       HT       0.417000        1.0080           0
     46473 WT3      7595     TIP3     H2       HT       0.417000        1.0080           0
     46474 WT3      7596     TIP3     OH2      OT      -0.834000       15.9994           0
     46475 WT3      7596     TIP3     H1       HT       0.417000        1.0080           0
     46476 WT3      7596     TIP3     H2       HT       0.417000        1.0080           0
     46477 WT3      7597     TIP3     OH2      OT      -0.834000       15.9994           0
     46478 WT3      7597     TIP3     H1       HT       0.417000        1.0080           0
     46479 WT3      7597     TIP3     H2       HT       0.417000        1.0080           0
     46480 WT3      7598     TIP3     OH2      OT      -0.834000       15.9994           0
     46481 WT3      7598     TIP3     H1       HT       0.417000        1.0080           0
     46482 WT3      7598     TIP3     H2       HT       0.417000        1.0080           0
     46483 WT3      7599     TIP3     OH2      OT      -0.834000       15.9994           0
     46484 WT3      7599     TIP3     H1       HT       0.417000        1.0080           0
     46485 WT3      7599     TIP3     H2       HT       0.417000        1.0080           0
     46486 WT3      7600     TIP3     OH2      OT      -0.834000       15.9994           0
     46487 WT3      7600     TIP3     H1       HT       0.417000        1.0080           0
     46488 WT3      7600     TIP3     H2       HT       0.417000        1.0080           0
     46489 WT3      7602     TIP3     OH2      OT      -0.834000       15.9994           0
     46490 WT3      7602     TIP3     H1       HT       0.417000        1.0080           0
     46491 WT3      7602     TIP3     H2       HT       0.417000        1.0080           0
     46492 WT3      7606     TIP3     OH2      OT      -0.834000       15.9994           0
     46493 WT3      7606     TIP3     H1       HT       0.417000        1.0080           0
     46494 WT3      7606     TIP3     H2       HT       0.417000        1.0080           0
     46495 WT3      7608     TIP3     OH2      OT      -0.834000       15.9994           0
     46496 WT3      7608     TIP3     H1       HT       0.417000        1.0080           0
     46497 WT3      7608     TIP3     H2       HT       0.417000        1.0080           0
     46498 WT3      7609     TIP3     OH2      OT      -0.834000       15.9994           0
     46499 WT3      7609     TIP3     H1       HT       0.417000        1.0080           0
     46500 WT3      7609     TIP3     H2       HT       0.417000        1.0080           0
     46501 WT3      7611     TIP3     OH2      OT      -0.834000       15.9994           0
     46502 WT3      7611     TIP3     H1       HT       0.417000        1.0080           0
     46503 WT3      7611     TIP3     H2       HT       0.417000        1.0080           0
     46504 WT3      7612     TIP3     OH2      OT      -0.834000       15.9994           0
     46505 WT3      7612     TIP3     H1       HT       0.417000        1.0080           0
     46506 WT3      7612     TIP3     H2       HT       0.417000        1.0080           0
     46507 WT3      7613     TIP3     OH2      OT      -0.834000       15.9994           0
     46508 WT3      7613     TIP3     H1       HT       0.417000        1.0080           0
     46509 WT3      7613     TIP3     H2       HT       0.417000        1.0080           0
     46510 WT3      7614     TIP3     OH2      OT      -0.834000       15.9994           0
     46511 WT3      7614     TIP3     H1       HT       0.417000        1.0080           0
     46512 WT3      7614     TIP3     H2       HT       0.417000        1.0080           0
     46513 WT3      7615     TIP3     OH2      OT      -0.834000       15.9994           0
     46514 WT3      7615     TIP3     H1       HT       0.417000        1.0080           0
     46515 WT3      7615     TIP3     H2       HT       0.417000        1.0080           0
     46516 WT3      7617     TIP3     OH2      OT      -0.834000       15.9994           0
     46517 WT3      7617     TIP3     H1       HT       0.417000        1.0080           0
     46518 WT3      7617     TIP3     H2       HT       0.417000        1.0080           0
     46519 WT3      7619     TIP3     OH2      OT      -0.834000       15.9994           0
     46520 WT3      7619     TIP3     H1       HT       0.417000        1.0080           0
     46521 WT3      7619     TIP3     H2       HT       0.417000        1.0080           0
     46522 WT3      7620     TIP3     OH2      OT      -0.834000       15.9994           0
     46523 WT3      7620     TIP3     H1       HT       0.417000        1.0080           0
     46524 WT3      7620     TIP3     H2       HT       0.417000        1.0080           0
     46525 WT3      7621     TIP3     OH2      OT      -0.834000       15.9994           0
     46526 WT3      7621     TIP3     H1       HT       0.417000        1.0080           0
     46527 WT3      7621     TIP3     H2       HT       0.417000        1.0080           0
     46528 WT3      7623     TIP3     OH2      OT      -0.834000       15.9994           0
     46529 WT3      7623     TIP3     H1       HT       0.417000        1.0080           0
     46530 WT3      7623     TIP3     H2       HT       0.417000        1.0080           0
     46531 WT3      7624     TIP3     OH2      OT      -0.834000       15.9994           0
     46532 WT3      7624     TIP3     H1       HT       0.417000        1.0080           0
     46533 WT3      7624     TIP3     H2       HT       0.417000        1.0080           0
     46534 WT3      7625     TIP3     OH2      OT      -0.834000       15.9994           0
     46535 WT3      7625     TIP3     H1       HT       0.417000        1.0080           0
     46536 WT3      7625     TIP3     H2       HT       0.417000        1.0080           0
     46537 WT3      7626     TIP3     OH2      OT      -0.834000       15.9994           0
     46538 WT3      7626     TIP3     H1       HT       0.417000        1.0080           0
     46539 WT3      7626     TIP3     H2       HT       0.417000        1.0080           0
     46540 WT3      7628     TIP3     OH2      OT      -0.834000       15.9994           0
     46541 WT3      7628     TIP3     H1       HT       0.417000        1.0080           0
     46542 WT3      7628     TIP3     H2       HT       0.417000        1.0080           0
     46543 WT3      7629     TIP3     OH2      OT      -0.834000       15.9994           0
     46544 WT3      7629     TIP3     H1       HT       0.417000        1.0080           0
     46545 WT3      7629     TIP3     H2       HT       0.417000        1.0080           0
     46546 WT3      7630     TIP3     OH2      OT      -0.834000       15.9994           0
     46547 WT3      7630     TIP3     H1       HT       0.417000        1.0080           0
     46548 WT3      7630     TIP3     H2       HT       0.417000        1.0080           0
     46549 WT3      7631     TIP3     OH2      OT      -0.834000       15.9994           0
     46550 WT3      7631     TIP3     H1       HT       0.417000        1.0080           0
     46551 WT3      7631     TIP3     H2       HT       0.417000        1.0080           0
     46552 WT3      7632     TIP3     OH2      OT      -0.834000       15.9994           0
     46553 WT3      7632     TIP3     H1       HT       0.417000        1.0080           0
     46554 WT3      7632     TIP3     H2       HT       0.417000        1.0080           0
     46555 WT3      7633     TIP3     OH2      OT      -0.834000       15.9994           0
     46556 WT3      7633     TIP3     H1       HT       0.417000        1.0080           0
     46557 WT3      7633     TIP3     H2       HT       0.417000        1.0080           0
     46558 WT3      7634     TIP3     OH2      OT      -0.834000       15.9994           0
     46559 WT3      7634     TIP3     H1       HT       0.417000        1.0080           0
     46560 WT3      7634     TIP3     H2       HT       0.417000        1.0080           0
     46561 WT3      7635     TIP3     OH2      OT      -0.834000       15.9994           0
     46562 WT3      7635     TIP3     H1       HT       0.417000        1.0080           0
     46563 WT3      7635     TIP3     H2       HT       0.417000        1.0080           0
     46564 WT3      7637     TIP3     OH2      OT      -0.834000       15.9994           0
     46565 WT3      7637     TIP3     H1       HT       0.417000        1.0080           0
     46566 WT3      7637     TIP3     H2       HT       0.417000        1.0080           0
     46567 WT3      7639     TIP3     OH2      OT      -0.834000       15.9994           0
     46568 WT3      7639     TIP3     H1       HT       0.417000        1.0080           0
     46569 WT3      7639     TIP3     H2       HT       0.417000        1.0080           0
     46570 WT3      7640     TIP3     OH2      OT      -0.834000       15.9994           0
     46571 WT3      7640     TIP3     H1       HT       0.417000        1.0080           0
     46572 WT3      7640     TIP3     H2       HT       0.417000        1.0080           0
     46573 WT3      7641     TIP3     OH2      OT      -0.834000       15.9994           0
     46574 WT3      7641     TIP3     H1       HT       0.417000        1.0080           0
     46575 WT3      7641     TIP3     H2       HT       0.417000        1.0080           0
     46576 WT3      7644     TIP3     OH2      OT      -0.834000       15.9994           0
     46577 WT3      7644     TIP3     H1       HT       0.417000        1.0080           0
     46578 WT3      7644     TIP3     H2       HT       0.417000        1.0080           0
     46579 WT3      7645     TIP3     OH2      OT      -0.834000       15.9994           0
     46580 WT3      7645     TIP3     H1       HT       0.417000        1.0080           0
     46581 WT3      7645     TIP3     H2       HT       0.417000        1.0080           0
     46582 WT3      7657     TIP3     OH2      OT      -0.834000       15.9994           0
     46583 WT3      7657     TIP3     H1       HT       0.417000        1.0080           0
     46584 WT3      7657     TIP3     H2       HT       0.417000        1.0080           0
     46585 WT3      7659     TIP3     OH2      OT      -0.834000       15.9994           0
     46586 WT3      7659     TIP3     H1       HT       0.417000        1.0080           0
     46587 WT3      7659     TIP3     H2       HT       0.417000        1.0080           0
     46588 WT3      7661     TIP3     OH2      OT      -0.834000       15.9994           0
     46589 WT3      7661     TIP3     H1       HT       0.417000        1.0080           0
     46590 WT3      7661     TIP3     H2       HT       0.417000        1.0080           0
     46591 WT3      7663     TIP3     OH2      OT      -0.834000       15.9994           0
     46592 WT3      7663     TIP3     H1       HT       0.417000        1.0080           0
     46593 WT3      7663     TIP3     H2       HT       0.417000        1.0080           0
     46594 WT3      7664     TIP3     OH2      OT      -0.834000       15.9994           0
     46595 WT3      7664     TIP3     H1       HT       0.417000        1.0080           0
     46596 WT3      7664     TIP3     H2       HT       0.417000        1.0080           0
     46597 WT3      7665     TIP3     OH2      OT      -0.834000       15.9994           0
     46598 WT3      7665     TIP3     H1       HT       0.417000        1.0080           0
     46599 WT3      7665     TIP3     H2       HT       0.417000        1.0080           0
     46600 WT3      7666     TIP3     OH2      OT      -0.834000       15.9994           0
     46601 WT3      7666     TIP3     H1       HT       0.417000        1.0080           0
     46602 WT3      7666     TIP3     H2       HT       0.417000        1.0080           0
     46603 WT3      7670     TIP3     OH2      OT      -0.834000       15.9994           0
     46604 WT3      7670     TIP3     H1       HT       0.417000        1.0080           0
     46605 WT3      7670     TIP3     H2       HT       0.417000        1.0080           0
     46606 WT3      7671     TIP3     OH2      OT      -0.834000       15.9994           0
     46607 WT3      7671     TIP3     H1       HT       0.417000        1.0080           0
     46608 WT3      7671     TIP3     H2       HT       0.417000        1.0080           0
     46609 WT3      7676     TIP3     OH2      OT      -0.834000       15.9994           0
     46610 WT3      7676     TIP3     H1       HT       0.417000        1.0080           0
     46611 WT3      7676     TIP3     H2       HT       0.417000        1.0080           0
     46612 WT3      7677     TIP3     OH2      OT      -0.834000       15.9994           0
     46613 WT3      7677     TIP3     H1       HT       0.417000        1.0080           0
     46614 WT3      7677     TIP3     H2       HT       0.417000        1.0080           0
     46615 WT3      7679     TIP3     OH2      OT      -0.834000       15.9994           0
     46616 WT3      7679     TIP3     H1       HT       0.417000        1.0080           0
     46617 WT3      7679     TIP3     H2       HT       0.417000        1.0080           0
     46618 WT3      7680     TIP3     OH2      OT      -0.834000       15.9994           0
     46619 WT3      7680     TIP3     H1       HT       0.417000        1.0080           0
     46620 WT3      7680     TIP3     H2       HT       0.417000        1.0080           0
     46621 WT3      7681     TIP3     OH2      OT      -0.834000       15.9994           0
     46622 WT3      7681     TIP3     H1       HT       0.417000        1.0080           0
     46623 WT3      7681     TIP3     H2       HT       0.417000        1.0080           0
     46624 WT3      7683     TIP3     OH2      OT      -0.834000       15.9994           0
     46625 WT3      7683     TIP3     H1       HT       0.417000        1.0080           0
     46626 WT3      7683     TIP3     H2       HT       0.417000        1.0080           0
     46627 WT3      7686     TIP3     OH2      OT      -0.834000       15.9994           0
     46628 WT3      7686     TIP3     H1       HT       0.417000        1.0080           0
     46629 WT3      7686     TIP3     H2       HT       0.417000        1.0080           0
     46630 WT3      7691     TIP3     OH2      OT      -0.834000       15.9994           0
     46631 WT3      7691     TIP3     H1       HT       0.417000        1.0080           0
     46632 WT3      7691     TIP3     H2       HT       0.417000        1.0080           0
     46633 WT3      7694     TIP3     OH2      OT      -0.834000       15.9994           0
     46634 WT3      7694     TIP3     H1       HT       0.417000        1.0080           0
     46635 WT3      7694     TIP3     H2       HT       0.417000        1.0080           0
     46636 WT3      7696     TIP3     OH2      OT      -0.834000       15.9994           0
     46637 WT3      7696     TIP3     H1       HT       0.417000        1.0080           0
     46638 WT3      7696     TIP3     H2       HT       0.417000        1.0080           0
     46639 WT3      7698     TIP3     OH2      OT      -0.834000       15.9994           0
     46640 WT3      7698     TIP3     H1       HT       0.417000        1.0080           0
     46641 WT3      7698     TIP3     H2       HT       0.417000        1.0080           0
     46642 WT3      7701     TIP3     OH2      OT      -0.834000       15.9994           0
     46643 WT3      7701     TIP3     H1       HT       0.417000        1.0080           0
     46644 WT3      7701     TIP3     H2       HT       0.417000        1.0080           0
     46645 WT3      7702     TIP3     OH2      OT      -0.834000       15.9994           0
     46646 WT3      7702     TIP3     H1       HT       0.417000        1.0080           0
     46647 WT3      7702     TIP3     H2       HT       0.417000        1.0080           0
     46648 WT3      7707     TIP3     OH2      OT      -0.834000       15.9994           0
     46649 WT3      7707     TIP3     H1       HT       0.417000        1.0080           0
     46650 WT3      7707     TIP3     H2       HT       0.417000        1.0080           0
     46651 WT3      7723     TIP3     OH2      OT      -0.834000       15.9994           0
     46652 WT3      7723     TIP3     H1       HT       0.417000        1.0080           0
     46653 WT3      7723     TIP3     H2       HT       0.417000        1.0080           0
     46654 WT3      7724     TIP3     OH2      OT      -0.834000       15.9994           0
     46655 WT3      7724     TIP3     H1       HT       0.417000        1.0080           0
     46656 WT3      7724     TIP3     H2       HT       0.417000        1.0080           0
     46657 WT3      7734     TIP3     OH2      OT      -0.834000       15.9994           0
     46658 WT3      7734     TIP3     H1       HT       0.417000        1.0080           0
     46659 WT3      7734     TIP3     H2       HT       0.417000        1.0080           0
     46660 WT3      7735     TIP3     OH2      OT      -0.834000       15.9994           0
     46661 WT3      7735     TIP3     H1       HT       0.417000        1.0080           0
     46662 WT3      7735     TIP3     H2       HT       0.417000        1.0080           0
     46663 WT3      7739     TIP3     OH2      OT      -0.834000       15.9994           0
     46664 WT3      7739     TIP3     H1       HT       0.417000        1.0080           0
     46665 WT3      7739     TIP3     H2       HT       0.417000        1.0080           0
     46666 WT3      7744     TIP3     OH2      OT      -0.834000       15.9994           0
     46667 WT3      7744     TIP3     H1       HT       0.417000        1.0080           0
     46668 WT3      7744     TIP3     H2       HT       0.417000        1.0080           0
     46669 WT3      7855     TIP3     OH2      OT      -0.834000       15.9994           0
     46670 WT3      7855     TIP3     H1       HT       0.417000        1.0080           0
     46671 WT3      7855     TIP3     H2       HT       0.417000        1.0080           0
     46672 WT3      7860     TIP3     OH2      OT      -0.834000       15.9994           0
     46673 WT3      7860     TIP3     H1       HT       0.417000        1.0080           0
     46674 WT3      7860     TIP3     H2       HT       0.417000        1.0080           0
     46675 WT3      7867     TIP3     OH2      OT      -0.834000       15.9994           0
     46676 WT3      7867     TIP3     H1       HT       0.417000        1.0080           0
     46677 WT3      7867     TIP3     H2       HT       0.417000        1.0080           0
     46678 WT3      7869     TIP3     OH2      OT      -0.834000       15.9994           0
     46679 WT3      7869     TIP3     H1       HT       0.417000        1.0080           0
     46680 WT3      7869     TIP3     H2       HT       0.417000        1.0080           0
     46681 WT3      7872     TIP3     OH2      OT      -0.834000       15.9994           0
     46682 WT3      7872     TIP3     H1       HT       0.417000        1.0080           0
     46683 WT3      7872     TIP3     H2       HT       0.417000        1.0080           0
     46684 WT3      7876     TIP3     OH2      OT      -0.834000       15.9994           0
     46685 WT3      7876     TIP3     H1       HT       0.417000        1.0080           0
     46686 WT3      7876     TIP3     H2       HT       0.417000        1.0080           0
     46687 WT3      7883     TIP3     OH2      OT      -0.834000       15.9994           0
     46688 WT3      7883     TIP3     H1       HT       0.417000        1.0080           0
     46689 WT3      7883     TIP3     H2       HT       0.417000        1.0080           0
     46690 WT3      7886     TIP3     OH2      OT      -0.834000       15.9994           0
     46691 WT3      7886     TIP3     H1       HT       0.417000        1.0080           0
     46692 WT3      7886     TIP3     H2       HT       0.417000        1.0080           0
     46693 WT3      7891     TIP3     OH2      OT      -0.834000       15.9994           0
     46694 WT3      7891     TIP3     H1       HT       0.417000        1.0080           0
     46695 WT3      7891     TIP3     H2       HT       0.417000        1.0080           0
     46696 WT3      7894     TIP3     OH2      OT      -0.834000       15.9994           0
     46697 WT3      7894     TIP3     H1       HT       0.417000        1.0080           0
     46698 WT3      7894     TIP3     H2       HT       0.417000        1.0080           0
     46699 WT3      7895     TIP3     OH2      OT      -0.834000       15.9994           0
     46700 WT3      7895     TIP3     H1       HT       0.417000        1.0080           0
     46701 WT3      7895     TIP3     H2       HT       0.417000        1.0080           0
     46702 WT3      7896     TIP3     OH2      OT      -0.834000       15.9994           0
     46703 WT3      7896     TIP3     H1       HT       0.417000        1.0080           0
     46704 WT3      7896     TIP3     H2       HT       0.417000        1.0080           0
     46705 WT3      7897     TIP3     OH2      OT      -0.834000       15.9994           0
     46706 WT3      7897     TIP3     H1       HT       0.417000        1.0080           0
     46707 WT3      7897     TIP3     H2       HT       0.417000        1.0080           0
     46708 WT3      7901     TIP3     OH2      OT      -0.834000       15.9994           0
     46709 WT3      7901     TIP3     H1       HT       0.417000        1.0080           0
     46710 WT3      7901     TIP3     H2       HT       0.417000        1.0080           0
     46711 WT3      7902     TIP3     OH2      OT      -0.834000       15.9994           0
     46712 WT3      7902     TIP3     H1       HT       0.417000        1.0080           0
     46713 WT3      7902     TIP3     H2       HT       0.417000        1.0080           0
     46714 WT3      7904     TIP3     OH2      OT      -0.834000       15.9994           0
     46715 WT3      7904     TIP3     H1       HT       0.417000        1.0080           0
     46716 WT3      7904     TIP3     H2       HT       0.417000        1.0080           0
     46717 WT3      7908     TIP3     OH2      OT      -0.834000       15.9994           0
     46718 WT3      7908     TIP3     H1       HT       0.417000        1.0080           0
     46719 WT3      7908     TIP3     H2       HT       0.417000        1.0080           0
     46720 WT3      7915     TIP3     OH2      OT      -0.834000       15.9994           0
     46721 WT3      7915     TIP3     H1       HT       0.417000        1.0080           0
     46722 WT3      7915     TIP3     H2       HT       0.417000        1.0080           0
     46723 WT3      7922     TIP3     OH2      OT      -0.834000       15.9994           0
     46724 WT3      7922     TIP3     H1       HT       0.417000        1.0080           0
     46725 WT3      7922     TIP3     H2       HT       0.417000        1.0080           0
     46726 WT3      7923     TIP3     OH2      OT      -0.834000       15.9994           0
     46727 WT3      7923     TIP3     H1       HT       0.417000        1.0080           0
     46728 WT3      7923     TIP3     H2       HT       0.417000        1.0080           0
     46729 WT3      7924     TIP3     OH2      OT      -0.834000       15.9994           0
     46730 WT3      7924     TIP3     H1       HT       0.417000        1.0080           0
     46731 WT3      7924     TIP3     H2       HT       0.417000        1.0080           0
     46732 WT3      7926     TIP3     OH2      OT      -0.834000       15.9994           0
     46733 WT3      7926     TIP3     H1       HT       0.417000        1.0080           0
     46734 WT3      7926     TIP3     H2       HT       0.417000        1.0080           0
     46735 WT3      7927     TIP3     OH2      OT      -0.834000       15.9994           0
     46736 WT3      7927     TIP3     H1       HT       0.417000        1.0080           0
     46737 WT3      7927     TIP3     H2       HT       0.417000        1.0080           0
     46738 WT3      7929     TIP3     OH2      OT      -0.834000       15.9994           0
     46739 WT3      7929     TIP3     H1       HT       0.417000        1.0080           0
     46740 WT3      7929     TIP3     H2       HT       0.417000        1.0080           0
     46741 WT3      7930     TIP3     OH2      OT      -0.834000       15.9994           0
     46742 WT3      7930     TIP3     H1       HT       0.417000        1.0080           0
     46743 WT3      7930     TIP3     H2       HT       0.417000        1.0080           0
     46744 WT3      7931     TIP3     OH2      OT      -0.834000       15.9994           0
     46745 WT3      7931     TIP3     H1       HT       0.417000        1.0080           0
     46746 WT3      7931     TIP3     H2       HT       0.417000        1.0080           0
     46747 WT3      7932     TIP3     OH2      OT      -0.834000       15.9994           0
     46748 WT3      7932     TIP3     H1       HT       0.417000        1.0080           0
     46749 WT3      7932     TIP3     H2       HT       0.417000        1.0080           0
     46750 WT3      7933     TIP3     OH2      OT      -0.834000       15.9994           0
     46751 WT3      7933     TIP3     H1       HT       0.417000        1.0080           0
     46752 WT3      7933     TIP3     H2       HT       0.417000        1.0080           0
     46753 WT3      7937     TIP3     OH2      OT      -0.834000       15.9994           0
     46754 WT3      7937     TIP3     H1       HT       0.417000        1.0080           0
     46755 WT3      7937     TIP3     H2       HT       0.417000        1.0080           0
     46756 WT3      7938     TIP3     OH2      OT      -0.834000       15.9994           0
     46757 WT3      7938     TIP3     H1       HT       0.417000        1.0080           0
     46758 WT3      7938     TIP3     H2       HT       0.417000        1.0080           0
     46759 WT3      7939     TIP3     OH2      OT      -0.834000       15.9994           0
     46760 WT3      7939     TIP3     H1       HT       0.417000        1.0080           0
     46761 WT3      7939     TIP3     H2       HT       0.417000        1.0080           0
     46762 WT3      7941     TIP3     OH2      OT      -0.834000       15.9994           0
     46763 WT3      7941     TIP3     H1       HT       0.417000        1.0080           0
     46764 WT3      7941     TIP3     H2       HT       0.417000        1.0080           0
     46765 WT3      7942     TIP3     OH2      OT      -0.834000       15.9994           0
     46766 WT3      7942     TIP3     H1       HT       0.417000        1.0080           0
     46767 WT3      7942     TIP3     H2       HT       0.417000        1.0080           0
     46768 WT3      7943     TIP3     OH2      OT      -0.834000       15.9994           0
     46769 WT3      7943     TIP3     H1       HT       0.417000        1.0080           0
     46770 WT3      7943     TIP3     H2       HT       0.417000        1.0080           0
     46771 WT3      7945     TIP3     OH2      OT      -0.834000       15.9994           0
     46772 WT3      7945     TIP3     H1       HT       0.417000        1.0080           0
     46773 WT3      7945     TIP3     H2       HT       0.417000        1.0080           0
     46774 WT3      7947     TIP3     OH2      OT      -0.834000       15.9994           0
     46775 WT3      7947     TIP3     H1       HT       0.417000        1.0080           0
     46776 WT3      7947     TIP3     H2       HT       0.417000        1.0080           0
     46777 WT3      7948     TIP3     OH2      OT      -0.834000       15.9994           0
     46778 WT3      7948     TIP3     H1       HT       0.417000        1.0080           0
     46779 WT3      7948     TIP3     H2       HT       0.417000        1.0080           0
     46780 WT3      7949     TIP3     OH2      OT      -0.834000       15.9994           0
     46781 WT3      7949     TIP3     H1       HT       0.417000        1.0080           0
     46782 WT3      7949     TIP3     H2       HT       0.417000        1.0080           0
     46783 WT3      7950     TIP3     OH2      OT      -0.834000       15.9994           0
     46784 WT3      7950     TIP3     H1       HT       0.417000        1.0080           0
     46785 WT3      7950     TIP3     H2       HT       0.417000        1.0080           0
     46786 WT3      7951     TIP3     OH2      OT      -0.834000       15.9994           0
     46787 WT3      7951     TIP3     H1       HT       0.417000        1.0080           0
     46788 WT3      7951     TIP3     H2       HT       0.417000        1.0080           0
     46789 WT3      7952     TIP3     OH2      OT      -0.834000       15.9994           0
     46790 WT3      7952     TIP3     H1       HT       0.417000        1.0080           0
     46791 WT3      7952     TIP3     H2       HT       0.417000        1.0080           0
     46792 WT3      7953     TIP3     OH2      OT      -0.834000       15.9994           0
     46793 WT3      7953     TIP3     H1       HT       0.417000        1.0080           0
     46794 WT3      7953     TIP3     H2       HT       0.417000        1.0080           0
     46795 WT3      7955     TIP3     OH2      OT      -0.834000       15.9994           0
     46796 WT3      7955     TIP3     H1       HT       0.417000        1.0080           0
     46797 WT3      7955     TIP3     H2       HT       0.417000        1.0080           0
     46798 WT3      7957     TIP3     OH2      OT      -0.834000       15.9994           0
     46799 WT3      7957     TIP3     H1       HT       0.417000        1.0080           0
     46800 WT3      7957     TIP3     H2       HT       0.417000        1.0080           0
     46801 WT3      7958     TIP3     OH2      OT      -0.834000       15.9994           0
     46802 WT3      7958     TIP3     H1       HT       0.417000        1.0080           0
     46803 WT3      7958     TIP3     H2       HT       0.417000        1.0080           0
     46804 WT3      7961     TIP3     OH2      OT      -0.834000       15.9994           0
     46805 WT3      7961     TIP3     H1       HT       0.417000        1.0080           0
     46806 WT3      7961     TIP3     H2       HT       0.417000        1.0080           0
     46807 WT3      7962     TIP3     OH2      OT      -0.834000       15.9994           0
     46808 WT3      7962     TIP3     H1       HT       0.417000        1.0080           0
     46809 WT3      7962     TIP3     H2       HT       0.417000        1.0080           0
     46810 WT3      7963     TIP3     OH2      OT      -0.834000       15.9994           0
     46811 WT3      7963     TIP3     H1       HT       0.417000        1.0080           0
     46812 WT3      7963     TIP3     H2       HT       0.417000        1.0080           0
     46813 WT3      7964     TIP3     OH2      OT      -0.834000       15.9994           0
     46814 WT3      7964     TIP3     H1       HT       0.417000        1.0080           0
     46815 WT3      7964     TIP3     H2       HT       0.417000        1.0080           0
     46816 WT3      7965     TIP3     OH2      OT      -0.834000       15.9994           0
     46817 WT3      7965     TIP3     H1       HT       0.417000        1.0080           0
     46818 WT3      7965     TIP3     H2       HT       0.417000        1.0080           0
     46819 WT3      7966     TIP3     OH2      OT      -0.834000       15.9994           0
     46820 WT3      7966     TIP3     H1       HT       0.417000        1.0080           0
     46821 WT3      7966     TIP3     H2       HT       0.417000        1.0080           0
     46822 WT3      7967     TIP3     OH2      OT      -0.834000       15.9994           0
     46823 WT3      7967     TIP3     H1       HT       0.417000        1.0080           0
     46824 WT3      7967     TIP3     H2       HT       0.417000        1.0080           0
     46825 WT3      7969     TIP3     OH2      OT      -0.834000       15.9994           0
     46826 WT3      7969     TIP3     H1       HT       0.417000        1.0080           0
     46827 WT3      7969     TIP3     H2       HT       0.417000        1.0080           0
     46828 WT3      7970     TIP3     OH2      OT      -0.834000       15.9994           0
     46829 WT3      7970     TIP3     H1       HT       0.417000        1.0080           0
     46830 WT3      7970     TIP3     H2       HT       0.417000        1.0080           0
     46831 WT3      7973     TIP3     OH2      OT      -0.834000       15.9994           0
     46832 WT3      7973     TIP3     H1       HT       0.417000        1.0080           0
     46833 WT3      7973     TIP3     H2       HT       0.417000        1.0080           0
     46834 WT3      7974     TIP3     OH2      OT      -0.834000       15.9994           0
     46835 WT3      7974     TIP3     H1       HT       0.417000        1.0080           0
     46836 WT3      7974     TIP3     H2       HT       0.417000        1.0080           0
     46837 WT3      7976     TIP3     OH2      OT      -0.834000       15.9994           0
     46838 WT3      7976     TIP3     H1       HT       0.417000        1.0080           0
     46839 WT3      7976     TIP3     H2       HT       0.417000        1.0080           0
     46840 WT3      7978     TIP3     OH2      OT      -0.834000       15.9994           0
     46841 WT3      7978     TIP3     H1       HT       0.417000        1.0080           0
     46842 WT3      7978     TIP3     H2       HT       0.417000        1.0080           0
     46843 WT3      7980     TIP3     OH2      OT      -0.834000       15.9994           0
     46844 WT3      7980     TIP3     H1       HT       0.417000        1.0080           0
     46845 WT3      7980     TIP3     H2       HT       0.417000        1.0080           0
     46846 WT3      7981     TIP3     OH2      OT      -0.834000       15.9994           0
     46847 WT3      7981     TIP3     H1       HT       0.417000        1.0080           0
     46848 WT3      7981     TIP3     H2       HT       0.417000        1.0080           0
     46849 WT3      7982     TIP3     OH2      OT      -0.834000       15.9994           0
     46850 WT3      7982     TIP3     H1       HT       0.417000        1.0080           0
     46851 WT3      7982     TIP3     H2       HT       0.417000        1.0080           0
     46852 WT3      7983     TIP3     OH2      OT      -0.834000       15.9994           0
     46853 WT3      7983     TIP3     H1       HT       0.417000        1.0080           0
     46854 WT3      7983     TIP3     H2       HT       0.417000        1.0080           0
     46855 WT3      7984     TIP3     OH2      OT      -0.834000       15.9994           0
     46856 WT3      7984     TIP3     H1       HT       0.417000        1.0080           0
     46857 WT3      7984     TIP3     H2       HT       0.417000        1.0080           0
     46858 WT3      7985     TIP3     OH2      OT      -0.834000       15.9994           0
     46859 WT3      7985     TIP3     H1       HT       0.417000        1.0080           0
     46860 WT3      7985     TIP3     H2       HT       0.417000        1.0080           0
     46861 WT3      7986     TIP3     OH2      OT      -0.834000       15.9994           0
     46862 WT3      7986     TIP3     H1       HT       0.417000        1.0080           0
     46863 WT3      7986     TIP3     H2       HT       0.417000        1.0080           0
     46864 WT3      7987     TIP3     OH2      OT      -0.834000       15.9994           0
     46865 WT3      7987     TIP3     H1       HT       0.417000        1.0080           0
     46866 WT3      7987     TIP3     H2       HT       0.417000        1.0080           0
     46867 WT3      7989     TIP3     OH2      OT      -0.834000       15.9994           0
     46868 WT3      7989     TIP3     H1       HT       0.417000        1.0080           0
     46869 WT3      7989     TIP3     H2       HT       0.417000        1.0080           0
     46870 WT3      7990     TIP3     OH2      OT      -0.834000       15.9994           0
     46871 WT3      7990     TIP3     H1       HT       0.417000        1.0080           0
     46872 WT3      7990     TIP3     H2       HT       0.417000        1.0080           0
     46873 WT3      7991     TIP3     OH2      OT      -0.834000       15.9994           0
     46874 WT3      7991     TIP3     H1       HT       0.417000        1.0080           0
     46875 WT3      7991     TIP3     H2       HT       0.417000        1.0080           0
     46876 WT3      7992     TIP3     OH2      OT      -0.834000       15.9994           0
     46877 WT3      7992     TIP3     H1       HT       0.417000        1.0080           0
     46878 WT3      7992     TIP3     H2       HT       0.417000        1.0080           0
     46879 WT3      7993     TIP3     OH2      OT      -0.834000       15.9994           0
     46880 WT3      7993     TIP3     H1       HT       0.417000        1.0080           0
     46881 WT3      7993     TIP3     H2       HT       0.417000        1.0080           0
     46882 WT3      7995     TIP3     OH2      OT      -0.834000       15.9994           0
     46883 WT3      7995     TIP3     H1       HT       0.417000        1.0080           0
     46884 WT3      7995     TIP3     H2       HT       0.417000        1.0080           0
     46885 WT3      7996     TIP3     OH2      OT      -0.834000       15.9994           0
     46886 WT3      7996     TIP3     H1       HT       0.417000        1.0080           0
     46887 WT3      7996     TIP3     H2       HT       0.417000        1.0080           0
     46888 WT3      7999     TIP3     OH2      OT      -0.834000       15.9994           0
     46889 WT3      7999     TIP3     H1       HT       0.417000        1.0080           0
     46890 WT3      7999     TIP3     H2       HT       0.417000        1.0080           0
     46891 WT3      8001     TIP3     OH2      OT      -0.834000       15.9994           0
     46892 WT3      8001     TIP3     H1       HT       0.417000        1.0080           0
     46893 WT3      8001     TIP3     H2       HT       0.417000        1.0080           0
     46894 WT3      8002     TIP3     OH2      OT      -0.834000       15.9994           0
     46895 WT3      8002     TIP3     H1       HT       0.417000        1.0080           0
     46896 WT3      8002     TIP3     H2       HT       0.417000        1.0080           0
     46897 WT3      8003     TIP3     OH2      OT      -0.834000       15.9994           0
     46898 WT3      8003     TIP3     H1       HT       0.417000        1.0080           0
     46899 WT3      8003     TIP3     H2       HT       0.417000        1.0080           0
     46900 WT3      8004     TIP3     OH2      OT      -0.834000       15.9994           0
     46901 WT3      8004     TIP3     H1       HT       0.417000        1.0080           0
     46902 WT3      8004     TIP3     H2       HT       0.417000        1.0080           0
     46903 WT3      8005     TIP3     OH2      OT      -0.834000       15.9994           0
     46904 WT3      8005     TIP3     H1       HT       0.417000        1.0080           0
     46905 WT3      8005     TIP3     H2       HT       0.417000        1.0080           0
     46906 WT3      8006     TIP3     OH2      OT      -0.834000       15.9994           0
     46907 WT3      8006     TIP3     H1       HT       0.417000        1.0080           0
     46908 WT3      8006     TIP3     H2       HT       0.417000        1.0080           0
     46909 WT3      8007     TIP3     OH2      OT      -0.834000       15.9994           0
     46910 WT3      8007     TIP3     H1       HT       0.417000        1.0080           0
     46911 WT3      8007     TIP3     H2       HT       0.417000        1.0080           0
     46912 WT3      8008     TIP3     OH2      OT      -0.834000       15.9994           0
     46913 WT3      8008     TIP3     H1       HT       0.417000        1.0080           0
     46914 WT3      8008     TIP3     H2       HT       0.417000        1.0080           0
     46915 WT3      8009     TIP3     OH2      OT      -0.834000       15.9994           0
     46916 WT3      8009     TIP3     H1       HT       0.417000        1.0080           0
     46917 WT3      8009     TIP3     H2       HT       0.417000        1.0080           0
     46918 WT3      8010     TIP3     OH2      OT      -0.834000       15.9994           0
     46919 WT3      8010     TIP3     H1       HT       0.417000        1.0080           0
     46920 WT3      8010     TIP3     H2       HT       0.417000        1.0080           0
     46921 WT3      8011     TIP3     OH2      OT      -0.834000       15.9994           0
     46922 WT3      8011     TIP3     H1       HT       0.417000        1.0080           0
     46923 WT3      8011     TIP3     H2       HT       0.417000        1.0080           0
     46924 WT3      8013     TIP3     OH2      OT      -0.834000       15.9994           0
     46925 WT3      8013     TIP3     H1       HT       0.417000        1.0080           0
     46926 WT3      8013     TIP3     H2       HT       0.417000        1.0080           0
     46927 WT3      8014     TIP3     OH2      OT      -0.834000       15.9994           0
     46928 WT3      8014     TIP3     H1       HT       0.417000        1.0080           0
     46929 WT3      8014     TIP3     H2       HT       0.417000        1.0080           0
     46930 WT3      8016     TIP3     OH2      OT      -0.834000       15.9994           0
     46931 WT3      8016     TIP3     H1       HT       0.417000        1.0080           0
     46932 WT3      8016     TIP3     H2       HT       0.417000        1.0080           0
     46933 WT3      8017     TIP3     OH2      OT      -0.834000       15.9994           0
     46934 WT3      8017     TIP3     H1       HT       0.417000        1.0080           0
     46935 WT3      8017     TIP3     H2       HT       0.417000        1.0080           0
     46936 WT3      8018     TIP3     OH2      OT      -0.834000       15.9994           0
     46937 WT3      8018     TIP3     H1       HT       0.417000        1.0080           0
     46938 WT3      8018     TIP3     H2       HT       0.417000        1.0080           0
     46939 WT3      8019     TIP3     OH2      OT      -0.834000       15.9994           0
     46940 WT3      8019     TIP3     H1       HT       0.417000        1.0080           0
     46941 WT3      8019     TIP3     H2       HT       0.417000        1.0080           0
     46942 WT3      8022     TIP3     OH2      OT      -0.834000       15.9994           0
     46943 WT3      8022     TIP3     H1       HT       0.417000        1.0080           0
     46944 WT3      8022     TIP3     H2       HT       0.417000        1.0080           0
     46945 WT3      8023     TIP3     OH2      OT      -0.834000       15.9994           0
     46946 WT3      8023     TIP3     H1       HT       0.417000        1.0080           0
     46947 WT3      8023     TIP3     H2       HT       0.417000        1.0080           0
     46948 WT3      8025     TIP3     OH2      OT      -0.834000       15.9994           0
     46949 WT3      8025     TIP3     H1       HT       0.417000        1.0080           0
     46950 WT3      8025     TIP3     H2       HT       0.417000        1.0080           0
     46951 WT3      8026     TIP3     OH2      OT      -0.834000       15.9994           0
     46952 WT3      8026     TIP3     H1       HT       0.417000        1.0080           0
     46953 WT3      8026     TIP3     H2       HT       0.417000        1.0080           0
     46954 WT3      8027     TIP3     OH2      OT      -0.834000       15.9994           0
     46955 WT3      8027     TIP3     H1       HT       0.417000        1.0080           0
     46956 WT3      8027     TIP3     H2       HT       0.417000        1.0080           0
     46957 WT3      8028     TIP3     OH2      OT      -0.834000       15.9994           0
     46958 WT3      8028     TIP3     H1       HT       0.417000        1.0080           0
     46959 WT3      8028     TIP3     H2       HT       0.417000        1.0080           0
     46960 WT3      8029     TIP3     OH2      OT      -0.834000       15.9994           0
     46961 WT3      8029     TIP3     H1       HT       0.417000        1.0080           0
     46962 WT3      8029     TIP3     H2       HT       0.417000        1.0080           0
     46963 WT3      8030     TIP3     OH2      OT      -0.834000       15.9994           0
     46964 WT3      8030     TIP3     H1       HT       0.417000        1.0080           0
     46965 WT3      8030     TIP3     H2       HT       0.417000        1.0080           0
     46966 WT3      8032     TIP3     OH2      OT      -0.834000       15.9994           0
     46967 WT3      8032     TIP3     H1       HT       0.417000        1.0080           0
     46968 WT3      8032     TIP3     H2       HT       0.417000        1.0080           0
     46969 WT3      8034     TIP3     OH2      OT      -0.834000       15.9994           0
     46970 WT3      8034     TIP3     H1       HT       0.417000        1.0080           0
     46971 WT3      8034     TIP3     H2       HT       0.417000        1.0080           0
     46972 WT3      8035     TIP3     OH2      OT      -0.834000       15.9994           0
     46973 WT3      8035     TIP3     H1       HT       0.417000        1.0080           0
     46974 WT3      8035     TIP3     H2       HT       0.417000        1.0080           0
     46975 WT3      8036     TIP3     OH2      OT      -0.834000       15.9994           0
     46976 WT3      8036     TIP3     H1       HT       0.417000        1.0080           0
     46977 WT3      8036     TIP3     H2       HT       0.417000        1.0080           0
     46978 WT3      8037     TIP3     OH2      OT      -0.834000       15.9994           0
     46979 WT3      8037     TIP3     H1       HT       0.417000        1.0080           0
     46980 WT3      8037     TIP3     H2       HT       0.417000        1.0080           0
     46981 WT3      8038     TIP3     OH2      OT      -0.834000       15.9994           0
     46982 WT3      8038     TIP3     H1       HT       0.417000        1.0080           0
     46983 WT3      8038     TIP3     H2       HT       0.417000        1.0080           0
     46984 WT3      8039     TIP3     OH2      OT      -0.834000       15.9994           0
     46985 WT3      8039     TIP3     H1       HT       0.417000        1.0080           0
     46986 WT3      8039     TIP3     H2       HT       0.417000        1.0080           0
     46987 WT3      8040     TIP3     OH2      OT      -0.834000       15.9994           0
     46988 WT3      8040     TIP3     H1       HT       0.417000        1.0080           0
     46989 WT3      8040     TIP3     H2       HT       0.417000        1.0080           0
     46990 WT3      8041     TIP3     OH2      OT      -0.834000       15.9994           0
     46991 WT3      8041     TIP3     H1       HT       0.417000        1.0080           0
     46992 WT3      8041     TIP3     H2       HT       0.417000        1.0080           0
     46993 WT3      8042     TIP3     OH2      OT      -0.834000       15.9994           0
     46994 WT3      8042     TIP3     H1       HT       0.417000        1.0080           0
     46995 WT3      8042     TIP3     H2       HT       0.417000        1.0080           0
     46996 WT3      8045     TIP3     OH2      OT      -0.834000       15.9994           0
     46997 WT3      8045     TIP3     H1       HT       0.417000        1.0080           0
     46998 WT3      8045     TIP3     H2       HT       0.417000        1.0080           0
     46999 WT3      8046     TIP3     OH2      OT      -0.834000       15.9994           0
     47000 WT3      8046     TIP3     H1       HT       0.417000        1.0080           0
     47001 WT3      8046     TIP3     H2       HT       0.417000        1.0080           0
     47002 WT3      8047     TIP3     OH2      OT      -0.834000       15.9994           0
     47003 WT3      8047     TIP3     H1       HT       0.417000        1.0080           0
     47004 WT3      8047     TIP3     H2       HT       0.417000        1.0080           0
     47005 WT3      8049     TIP3     OH2      OT      -0.834000       15.9994           0
     47006 WT3      8049     TIP3     H1       HT       0.417000        1.0080           0
     47007 WT3      8049     TIP3     H2       HT       0.417000        1.0080           0
     47008 WT3      8051     TIP3     OH2      OT      -0.834000       15.9994           0
     47009 WT3      8051     TIP3     H1       HT       0.417000        1.0080           0
     47010 WT3      8051     TIP3     H2       HT       0.417000        1.0080           0
     47011 WT3      8053     TIP3     OH2      OT      -0.834000       15.9994           0
     47012 WT3      8053     TIP3     H1       HT       0.417000        1.0080           0
     47013 WT3      8053     TIP3     H2       HT       0.417000        1.0080           0
     47014 WT3      8055     TIP3     OH2      OT      -0.834000       15.9994           0
     47015 WT3      8055     TIP3     H1       HT       0.417000        1.0080           0
     47016 WT3      8055     TIP3     H2       HT       0.417000        1.0080           0
     47017 WT3      8056     TIP3     OH2      OT      -0.834000       15.9994           0
     47018 WT3      8056     TIP3     H1       HT       0.417000        1.0080           0
     47019 WT3      8056     TIP3     H2       HT       0.417000        1.0080           0
     47020 WT3      8057     TIP3     OH2      OT      -0.834000       15.9994           0
     47021 WT3      8057     TIP3     H1       HT       0.417000        1.0080           0
     47022 WT3      8057     TIP3     H2       HT       0.417000        1.0080           0
     47023 WT3      8058     TIP3     OH2      OT      -0.834000       15.9994           0
     47024 WT3      8058     TIP3     H1       HT       0.417000        1.0080           0
     47025 WT3      8058     TIP3     H2       HT       0.417000        1.0080           0
     47026 WT3      8059     TIP3     OH2      OT      -0.834000       15.9994           0
     47027 WT3      8059     TIP3     H1       HT       0.417000        1.0080           0
     47028 WT3      8059     TIP3     H2       HT       0.417000        1.0080           0
     47029 WT3      8060     TIP3     OH2      OT      -0.834000       15.9994           0
     47030 WT3      8060     TIP3     H1       HT       0.417000        1.0080           0
     47031 WT3      8060     TIP3     H2       HT       0.417000        1.0080           0
     47032 WT3      8062     TIP3     OH2      OT      -0.834000       15.9994           0
     47033 WT3      8062     TIP3     H1       HT       0.417000        1.0080           0
     47034 WT3      8062     TIP3     H2       HT       0.417000        1.0080           0
     47035 WT3      8063     TIP3     OH2      OT      -0.834000       15.9994           0
     47036 WT3      8063     TIP3     H1       HT       0.417000        1.0080           0
     47037 WT3      8063     TIP3     H2       HT       0.417000        1.0080           0
     47038 WT3      8064     TIP3     OH2      OT      -0.834000       15.9994           0
     47039 WT3      8064     TIP3     H1       HT       0.417000        1.0080           0
     47040 WT3      8064     TIP3     H2       HT       0.417000        1.0080           0
     47041 WT3      8066     TIP3     OH2      OT      -0.834000       15.9994           0
     47042 WT3      8066     TIP3     H1       HT       0.417000        1.0080           0
     47043 WT3      8066     TIP3     H2       HT       0.417000        1.0080           0
     47044 WT3      8068     TIP3     OH2      OT      -0.834000       15.9994           0
     47045 WT3      8068     TIP3     H1       HT       0.417000        1.0080           0
     47046 WT3      8068     TIP3     H2       HT       0.417000        1.0080           0
     47047 WT3      8070     TIP3     OH2      OT      -0.834000       15.9994           0
     47048 WT3      8070     TIP3     H1       HT       0.417000        1.0080           0
     47049 WT3      8070     TIP3     H2       HT       0.417000        1.0080           0
     47050 WT3      8071     TIP3     OH2      OT      -0.834000       15.9994           0
     47051 WT3      8071     TIP3     H1       HT       0.417000        1.0080           0
     47052 WT3      8071     TIP3     H2       HT       0.417000        1.0080           0
     47053 WT3      8073     TIP3     OH2      OT      -0.834000       15.9994           0
     47054 WT3      8073     TIP3     H1       HT       0.417000        1.0080           0
     47055 WT3      8073     TIP3     H2       HT       0.417000        1.0080           0
     47056 WT3      8074     TIP3     OH2      OT      -0.834000       15.9994           0
     47057 WT3      8074     TIP3     H1       HT       0.417000        1.0080           0
     47058 WT3      8074     TIP3     H2       HT       0.417000        1.0080           0
     47059 WT3      8075     TIP3     OH2      OT      -0.834000       15.9994           0
     47060 WT3      8075     TIP3     H1       HT       0.417000        1.0080           0
     47061 WT3      8075     TIP3     H2       HT       0.417000        1.0080           0
     47062 WT3      8076     TIP3     OH2      OT      -0.834000       15.9994           0
     47063 WT3      8076     TIP3     H1       HT       0.417000        1.0080           0
     47064 WT3      8076     TIP3     H2       HT       0.417000        1.0080           0
     47065 WT3      8077     TIP3     OH2      OT      -0.834000       15.9994           0
     47066 WT3      8077     TIP3     H1       HT       0.417000        1.0080           0
     47067 WT3      8077     TIP3     H2       HT       0.417000        1.0080           0
     47068 WT3      8079     TIP3     OH2      OT      -0.834000       15.9994           0
     47069 WT3      8079     TIP3     H1       HT       0.417000        1.0080           0
     47070 WT3      8079     TIP3     H2       HT       0.417000        1.0080           0
     47071 WT3      8081     TIP3     OH2      OT      -0.834000       15.9994           0
     47072 WT3      8081     TIP3     H1       HT       0.417000        1.0080           0
     47073 WT3      8081     TIP3     H2       HT       0.417000        1.0080           0
     47074 WT3      8082     TIP3     OH2      OT      -0.834000       15.9994           0
     47075 WT3      8082     TIP3     H1       HT       0.417000        1.0080           0
     47076 WT3      8082     TIP3     H2       HT       0.417000        1.0080           0
     47077 WT3      8083     TIP3     OH2      OT      -0.834000       15.9994           0
     47078 WT3      8083     TIP3     H1       HT       0.417000        1.0080           0
     47079 WT3      8083     TIP3     H2       HT       0.417000        1.0080           0
     47080 WT3      8084     TIP3     OH2      OT      -0.834000       15.9994           0
     47081 WT3      8084     TIP3     H1       HT       0.417000        1.0080           0
     47082 WT3      8084     TIP3     H2       HT       0.417000        1.0080           0
     47083 WT3      8087     TIP3     OH2      OT      -0.834000       15.9994           0
     47084 WT3      8087     TIP3     H1       HT       0.417000        1.0080           0
     47085 WT3      8087     TIP3     H2       HT       0.417000        1.0080           0
     47086 WT3      8088     TIP3     OH2      OT      -0.834000       15.9994           0
     47087 WT3      8088     TIP3     H1       HT       0.417000        1.0080           0
     47088 WT3      8088     TIP3     H2       HT       0.417000        1.0080           0
     47089 WT3      8089     TIP3     OH2      OT      -0.834000       15.9994           0
     47090 WT3      8089     TIP3     H1       HT       0.417000        1.0080           0
     47091 WT3      8089     TIP3     H2       HT       0.417000        1.0080           0
     47092 WT3      8090     TIP3     OH2      OT      -0.834000       15.9994           0
     47093 WT3      8090     TIP3     H1       HT       0.417000        1.0080           0
     47094 WT3      8090     TIP3     H2       HT       0.417000        1.0080           0
     47095 WT3      8093     TIP3     OH2      OT      -0.834000       15.9994           0
     47096 WT3      8093     TIP3     H1       HT       0.417000        1.0080           0
     47097 WT3      8093     TIP3     H2       HT       0.417000        1.0080           0
     47098 WT3      8095     TIP3     OH2      OT      -0.834000       15.9994           0
     47099 WT3      8095     TIP3     H1       HT       0.417000        1.0080           0
     47100 WT3      8095     TIP3     H2       HT       0.417000        1.0080           0
     47101 WT3      8096     TIP3     OH2      OT      -0.834000       15.9994           0
     47102 WT3      8096     TIP3     H1       HT       0.417000        1.0080           0
     47103 WT3      8096     TIP3     H2       HT       0.417000        1.0080           0
     47104 WT3      8097     TIP3     OH2      OT      -0.834000       15.9994           0
     47105 WT3      8097     TIP3     H1       HT       0.417000        1.0080           0
     47106 WT3      8097     TIP3     H2       HT       0.417000        1.0080           0
     47107 WT3      8099     TIP3     OH2      OT      -0.834000       15.9994           0
     47108 WT3      8099     TIP3     H1       HT       0.417000        1.0080           0
     47109 WT3      8099     TIP3     H2       HT       0.417000        1.0080           0
     47110 WT3      8100     TIP3     OH2      OT      -0.834000       15.9994           0
     47111 WT3      8100     TIP3     H1       HT       0.417000        1.0080           0
     47112 WT3      8100     TIP3     H2       HT       0.417000        1.0080           0
     47113 WT3      8101     TIP3     OH2      OT      -0.834000       15.9994           0
     47114 WT3      8101     TIP3     H1       HT       0.417000        1.0080           0
     47115 WT3      8101     TIP3     H2       HT       0.417000        1.0080           0
     47116 WT3      8102     TIP3     OH2      OT      -0.834000       15.9994           0
     47117 WT3      8102     TIP3     H1       HT       0.417000        1.0080           0
     47118 WT3      8102     TIP3     H2       HT       0.417000        1.0080           0
     47119 WT3      8103     TIP3     OH2      OT      -0.834000       15.9994           0
     47120 WT3      8103     TIP3     H1       HT       0.417000        1.0080           0
     47121 WT3      8103     TIP3     H2       HT       0.417000        1.0080           0
     47122 WT3      8105     TIP3     OH2      OT      -0.834000       15.9994           0
     47123 WT3      8105     TIP3     H1       HT       0.417000        1.0080           0
     47124 WT3      8105     TIP3     H2       HT       0.417000        1.0080           0
     47125 WT3      8106     TIP3     OH2      OT      -0.834000       15.9994           0
     47126 WT3      8106     TIP3     H1       HT       0.417000        1.0080           0
     47127 WT3      8106     TIP3     H2       HT       0.417000        1.0080           0
     47128 WT3      8108     TIP3     OH2      OT      -0.834000       15.9994           0
     47129 WT3      8108     TIP3     H1       HT       0.417000        1.0080           0
     47130 WT3      8108     TIP3     H2       HT       0.417000        1.0080           0
     47131 WT3      8109     TIP3     OH2      OT      -0.834000       15.9994           0
     47132 WT3      8109     TIP3     H1       HT       0.417000        1.0080           0
     47133 WT3      8109     TIP3     H2       HT       0.417000        1.0080           0
     47134 WT3      8111     TIP3     OH2      OT      -0.834000       15.9994           0
     47135 WT3      8111     TIP3     H1       HT       0.417000        1.0080           0
     47136 WT3      8111     TIP3     H2       HT       0.417000        1.0080           0
     47137 WT3      8112     TIP3     OH2      OT      -0.834000       15.9994           0
     47138 WT3      8112     TIP3     H1       HT       0.417000        1.0080           0
     47139 WT3      8112     TIP3     H2       HT       0.417000        1.0080           0
     47140 WT3      8114     TIP3     OH2      OT      -0.834000       15.9994           0
     47141 WT3      8114     TIP3     H1       HT       0.417000        1.0080           0
     47142 WT3      8114     TIP3     H2       HT       0.417000        1.0080           0
     47143 WT3      8116     TIP3     OH2      OT      -0.834000       15.9994           0
     47144 WT3      8116     TIP3     H1       HT       0.417000        1.0080           0
     47145 WT3      8116     TIP3     H2       HT       0.417000        1.0080           0
     47146 WT3      8117     TIP3     OH2      OT      -0.834000       15.9994           0
     47147 WT3      8117     TIP3     H1       HT       0.417000        1.0080           0
     47148 WT3      8117     TIP3     H2       HT       0.417000        1.0080           0
     47149 WT3      8119     TIP3     OH2      OT      -0.834000       15.9994           0
     47150 WT3      8119     TIP3     H1       HT       0.417000        1.0080           0
     47151 WT3      8119     TIP3     H2       HT       0.417000        1.0080           0
     47152 WT3      8121     TIP3     OH2      OT      -0.834000       15.9994           0
     47153 WT3      8121     TIP3     H1       HT       0.417000        1.0080           0
     47154 WT3      8121     TIP3     H2       HT       0.417000        1.0080           0
     47155 WT3      8122     TIP3     OH2      OT      -0.834000       15.9994           0
     47156 WT3      8122     TIP3     H1       HT       0.417000        1.0080           0
     47157 WT3      8122     TIP3     H2       HT       0.417000        1.0080           0
     47158 WT3      8123     TIP3     OH2      OT      -0.834000       15.9994           0
     47159 WT3      8123     TIP3     H1       HT       0.417000        1.0080           0
     47160 WT3      8123     TIP3     H2       HT       0.417000        1.0080           0
     47161 WT3      8137     TIP3     OH2      OT      -0.834000       15.9994           0
     47162 WT3      8137     TIP3     H1       HT       0.417000        1.0080           0
     47163 WT3      8137     TIP3     H2       HT       0.417000        1.0080           0
     47164 WT3      8138     TIP3     OH2      OT      -0.834000       15.9994           0
     47165 WT3      8138     TIP3     H1       HT       0.417000        1.0080           0
     47166 WT3      8138     TIP3     H2       HT       0.417000        1.0080           0
     47167 WT3      8142     TIP3     OH2      OT      -0.834000       15.9994           0
     47168 WT3      8142     TIP3     H1       HT       0.417000        1.0080           0
     47169 WT3      8142     TIP3     H2       HT       0.417000        1.0080           0
     47170 WT3      8143     TIP3     OH2      OT      -0.834000       15.9994           0
     47171 WT3      8143     TIP3     H1       HT       0.417000        1.0080           0
     47172 WT3      8143     TIP3     H2       HT       0.417000        1.0080           0
     47173 WT3      8154     TIP3     OH2      OT      -0.834000       15.9994           0
     47174 WT3      8154     TIP3     H1       HT       0.417000        1.0080           0
     47175 WT3      8154     TIP3     H2       HT       0.417000        1.0080           0
     47176 WT3      8158     TIP3     OH2      OT      -0.834000       15.9994           0
     47177 WT3      8158     TIP3     H1       HT       0.417000        1.0080           0
     47178 WT3      8158     TIP3     H2       HT       0.417000        1.0080           0
     47179 WT3      8170     TIP3     OH2      OT      -0.834000       15.9994           0
     47180 WT3      8170     TIP3     H1       HT       0.417000        1.0080           0
     47181 WT3      8170     TIP3     H2       HT       0.417000        1.0080           0
     47182 WT3      8178     TIP3     OH2      OT      -0.834000       15.9994           0
     47183 WT3      8178     TIP3     H1       HT       0.417000        1.0080           0
     47184 WT3      8178     TIP3     H2       HT       0.417000        1.0080           0
     47185 WT3      8228     TIP3     OH2      OT      -0.834000       15.9994           0
     47186 WT3      8228     TIP3     H1       HT       0.417000        1.0080           0
     47187 WT3      8228     TIP3     H2       HT       0.417000        1.0080           0
     47188 WT3      8270     TIP3     OH2      OT      -0.834000       15.9994           0
     47189 WT3      8270     TIP3     H1       HT       0.417000        1.0080           0
     47190 WT3      8270     TIP3     H2       HT       0.417000        1.0080           0
     47191 WT3      8290     TIP3     OH2      OT      -0.834000       15.9994           0
     47192 WT3      8290     TIP3     H1       HT       0.417000        1.0080           0
     47193 WT3      8290     TIP3     H2       HT       0.417000        1.0080           0
     47194 WT3      8304     TIP3     OH2      OT      -0.834000       15.9994           0
     47195 WT3      8304     TIP3     H1       HT       0.417000        1.0080           0
     47196 WT3      8304     TIP3     H2       HT       0.417000        1.0080           0
     47197 WT3      8309     TIP3     OH2      OT      -0.834000       15.9994           0
     47198 WT3      8309     TIP3     H1       HT       0.417000        1.0080           0
     47199 WT3      8309     TIP3     H2       HT       0.417000        1.0080           0
     47200 WT3      8319     TIP3     OH2      OT      -0.834000       15.9994           0
     47201 WT3      8319     TIP3     H1       HT       0.417000        1.0080           0
     47202 WT3      8319     TIP3     H2       HT       0.417000        1.0080           0
     47203 WT3      8322     TIP3     OH2      OT      -0.834000       15.9994           0
     47204 WT3      8322     TIP3     H1       HT       0.417000        1.0080           0
     47205 WT3      8322     TIP3     H2       HT       0.417000        1.0080           0
     47206 WT3      8324     TIP3     OH2      OT      -0.834000       15.9994           0
     47207 WT3      8324     TIP3     H1       HT       0.417000        1.0080           0
     47208 WT3      8324     TIP3     H2       HT       0.417000        1.0080           0
     47209 WT3      8326     TIP3     OH2      OT      -0.834000       15.9994           0
     47210 WT3      8326     TIP3     H1       HT       0.417000        1.0080           0
     47211 WT3      8326     TIP3     H2       HT       0.417000        1.0080           0
     47212 WT3      8327     TIP3     OH2      OT      -0.834000       15.9994           0
     47213 WT3      8327     TIP3     H1       HT       0.417000        1.0080           0
     47214 WT3      8327     TIP3     H2       HT       0.417000        1.0080           0
     47215 WT3      8339     TIP3     OH2      OT      -0.834000       15.9994           0
     47216 WT3      8339     TIP3     H1       HT       0.417000        1.0080           0
     47217 WT3      8339     TIP3     H2       HT       0.417000        1.0080           0
     47218 WT3      8342     TIP3     OH2      OT      -0.834000       15.9994           0
     47219 WT3      8342     TIP3     H1       HT       0.417000        1.0080           0
     47220 WT3      8342     TIP3     H2       HT       0.417000        1.0080           0
     47221 WT3      8345     TIP3     OH2      OT      -0.834000       15.9994           0
     47222 WT3      8345     TIP3     H1       HT       0.417000        1.0080           0
     47223 WT3      8345     TIP3     H2       HT       0.417000        1.0080           0
     47224 WT3      8348     TIP3     OH2      OT      -0.834000       15.9994           0
     47225 WT3      8348     TIP3     H1       HT       0.417000        1.0080           0
     47226 WT3      8348     TIP3     H2       HT       0.417000        1.0080           0
     47227 WT3      8349     TIP3     OH2      OT      -0.834000       15.9994           0
     47228 WT3      8349     TIP3     H1       HT       0.417000        1.0080           0
     47229 WT3      8349     TIP3     H2       HT       0.417000        1.0080           0
     47230 WT3      8354     TIP3     OH2      OT      -0.834000       15.9994           0
     47231 WT3      8354     TIP3     H1       HT       0.417000        1.0080           0
     47232 WT3      8354     TIP3     H2       HT       0.417000        1.0080           0
     47233 WT3      8355     TIP3     OH2      OT      -0.834000       15.9994           0
     47234 WT3      8355     TIP3     H1       HT       0.417000        1.0080           0
     47235 WT3      8355     TIP3     H2       HT       0.417000        1.0080           0
     47236 WT3      8359     TIP3     OH2      OT      -0.834000       15.9994           0
     47237 WT3      8359     TIP3     H1       HT       0.417000        1.0080           0
     47238 WT3      8359     TIP3     H2       HT       0.417000        1.0080           0
     47239 WT3      8360     TIP3     OH2      OT      -0.834000       15.9994           0
     47240 WT3      8360     TIP3     H1       HT       0.417000        1.0080           0
     47241 WT3      8360     TIP3     H2       HT       0.417000        1.0080           0
     47242 WT3      8364     TIP3     OH2      OT      -0.834000       15.9994           0
     47243 WT3      8364     TIP3     H1       HT       0.417000        1.0080           0
     47244 WT3      8364     TIP3     H2       HT       0.417000        1.0080           0
     47245 WT3      8365     TIP3     OH2      OT      -0.834000       15.9994           0
     47246 WT3      8365     TIP3     H1       HT       0.417000        1.0080           0
     47247 WT3      8365     TIP3     H2       HT       0.417000        1.0080           0
     47248 WT3      8369     TIP3     OH2      OT      -0.834000       15.9994           0
     47249 WT3      8369     TIP3     H1       HT       0.417000        1.0080           0
     47250 WT3      8369     TIP3     H2       HT       0.417000        1.0080           0
     47251 WT3      8370     TIP3     OH2      OT      -0.834000       15.9994           0
     47252 WT3      8370     TIP3     H1       HT       0.417000        1.0080           0
     47253 WT3      8370     TIP3     H2       HT       0.417000        1.0080           0
     47254 WT3      8372     TIP3     OH2      OT      -0.834000       15.9994           0
     47255 WT3      8372     TIP3     H1       HT       0.417000        1.0080           0
     47256 WT3      8372     TIP3     H2       HT       0.417000        1.0080           0
     47257 WT3      8375     TIP3     OH2      OT      -0.834000       15.9994           0
     47258 WT3      8375     TIP3     H1       HT       0.417000        1.0080           0
     47259 WT3      8375     TIP3     H2       HT       0.417000        1.0080           0
     47260 WT3      8376     TIP3     OH2      OT      -0.834000       15.9994           0
     47261 WT3      8376     TIP3     H1       HT       0.417000        1.0080           0
     47262 WT3      8376     TIP3     H2       HT       0.417000        1.0080           0
     47263 WT3      8377     TIP3     OH2      OT      -0.834000       15.9994           0
     47264 WT3      8377     TIP3     H1       HT       0.417000        1.0080           0
     47265 WT3      8377     TIP3     H2       HT       0.417000        1.0080           0
     47266 WT3      8378     TIP3     OH2      OT      -0.834000       15.9994           0
     47267 WT3      8378     TIP3     H1       HT       0.417000        1.0080           0
     47268 WT3      8378     TIP3     H2       HT       0.417000        1.0080           0
     47269 WT3      8381     TIP3     OH2      OT      -0.834000       15.9994           0
     47270 WT3      8381     TIP3     H1       HT       0.417000        1.0080           0
     47271 WT3      8381     TIP3     H2       HT       0.417000        1.0080           0
     47272 WT3      8382     TIP3     OH2      OT      -0.834000       15.9994           0
     47273 WT3      8382     TIP3     H1       HT       0.417000        1.0080           0
     47274 WT3      8382     TIP3     H2       HT       0.417000        1.0080           0
     47275 WT3      8384     TIP3     OH2      OT      -0.834000       15.9994           0
     47276 WT3      8384     TIP3     H1       HT       0.417000        1.0080           0
     47277 WT3      8384     TIP3     H2       HT       0.417000        1.0080           0
     47278 WT3      8386     TIP3     OH2      OT      -0.834000       15.9994           0
     47279 WT3      8386     TIP3     H1       HT       0.417000        1.0080           0
     47280 WT3      8386     TIP3     H2       HT       0.417000        1.0080           0
     47281 WT3      8388     TIP3     OH2      OT      -0.834000       15.9994           0
     47282 WT3      8388     TIP3     H1       HT       0.417000        1.0080           0
     47283 WT3      8388     TIP3     H2       HT       0.417000        1.0080           0
     47284 WT3      8389     TIP3     OH2      OT      -0.834000       15.9994           0
     47285 WT3      8389     TIP3     H1       HT       0.417000        1.0080           0
     47286 WT3      8389     TIP3     H2       HT       0.417000        1.0080           0
     47287 WT3      8391     TIP3     OH2      OT      -0.834000       15.9994           0
     47288 WT3      8391     TIP3     H1       HT       0.417000        1.0080           0
     47289 WT3      8391     TIP3     H2       HT       0.417000        1.0080           0
     47290 WT3      8393     TIP3     OH2      OT      -0.834000       15.9994           0
     47291 WT3      8393     TIP3     H1       HT       0.417000        1.0080           0
     47292 WT3      8393     TIP3     H2       HT       0.417000        1.0080           0
     47293 WT3      8394     TIP3     OH2      OT      -0.834000       15.9994           0
     47294 WT3      8394     TIP3     H1       HT       0.417000        1.0080           0
     47295 WT3      8394     TIP3     H2       HT       0.417000        1.0080           0
     47296 WT3      8396     TIP3     OH2      OT      -0.834000       15.9994           0
     47297 WT3      8396     TIP3     H1       HT       0.417000        1.0080           0
     47298 WT3      8396     TIP3     H2       HT       0.417000        1.0080           0
     47299 WT3      8397     TIP3     OH2      OT      -0.834000       15.9994           0
     47300 WT3      8397     TIP3     H1       HT       0.417000        1.0080           0
     47301 WT3      8397     TIP3     H2       HT       0.417000        1.0080           0
     47302 WT3      8399     TIP3     OH2      OT      -0.834000       15.9994           0
     47303 WT3      8399     TIP3     H1       HT       0.417000        1.0080           0
     47304 WT3      8399     TIP3     H2       HT       0.417000        1.0080           0
     47305 WT3      8401     TIP3     OH2      OT      -0.834000       15.9994           0
     47306 WT3      8401     TIP3     H1       HT       0.417000        1.0080           0
     47307 WT3      8401     TIP3     H2       HT       0.417000        1.0080           0
     47308 WT3      8402     TIP3     OH2      OT      -0.834000       15.9994           0
     47309 WT3      8402     TIP3     H1       HT       0.417000        1.0080           0
     47310 WT3      8402     TIP3     H2       HT       0.417000        1.0080           0
     47311 WT3      8403     TIP3     OH2      OT      -0.834000       15.9994           0
     47312 WT3      8403     TIP3     H1       HT       0.417000        1.0080           0
     47313 WT3      8403     TIP3     H2       HT       0.417000        1.0080           0
     47314 WT3      8404     TIP3     OH2      OT      -0.834000       15.9994           0
     47315 WT3      8404     TIP3     H1       HT       0.417000        1.0080           0
     47316 WT3      8404     TIP3     H2       HT       0.417000        1.0080           0
     47317 WT3      8406     TIP3     OH2      OT      -0.834000       15.9994           0
     47318 WT3      8406     TIP3     H1       HT       0.417000        1.0080           0
     47319 WT3      8406     TIP3     H2       HT       0.417000        1.0080           0
     47320 WT3      8408     TIP3     OH2      OT      -0.834000       15.9994           0
     47321 WT3      8408     TIP3     H1       HT       0.417000        1.0080           0
     47322 WT3      8408     TIP3     H2       HT       0.417000        1.0080           0
     47323 WT3      8409     TIP3     OH2      OT      -0.834000       15.9994           0
     47324 WT3      8409     TIP3     H1       HT       0.417000        1.0080           0
     47325 WT3      8409     TIP3     H2       HT       0.417000        1.0080           0
     47326 WT3      8410     TIP3     OH2      OT      -0.834000       15.9994           0
     47327 WT3      8410     TIP3     H1       HT       0.417000        1.0080           0
     47328 WT3      8410     TIP3     H2       HT       0.417000        1.0080           0
     47329 WT3      8411     TIP3     OH2      OT      -0.834000       15.9994           0
     47330 WT3      8411     TIP3     H1       HT       0.417000        1.0080           0
     47331 WT3      8411     TIP3     H2       HT       0.417000        1.0080           0
     47332 WT3      8412     TIP3     OH2      OT      -0.834000       15.9994           0
     47333 WT3      8412     TIP3     H1       HT       0.417000        1.0080           0
     47334 WT3      8412     TIP3     H2       HT       0.417000        1.0080           0
     47335 WT3      8413     TIP3     OH2      OT      -0.834000       15.9994           0
     47336 WT3      8413     TIP3     H1       HT       0.417000        1.0080           0
     47337 WT3      8413     TIP3     H2       HT       0.417000        1.0080           0
     47338 WT3      8414     TIP3     OH2      OT      -0.834000       15.9994           0
     47339 WT3      8414     TIP3     H1       HT       0.417000        1.0080           0
     47340 WT3      8414     TIP3     H2       HT       0.417000        1.0080           0
     47341 WT3      8415     TIP3     OH2      OT      -0.834000       15.9994           0
     47342 WT3      8415     TIP3     H1       HT       0.417000        1.0080           0
     47343 WT3      8415     TIP3     H2       HT       0.417000        1.0080           0
     47344 WT3      8416     TIP3     OH2      OT      -0.834000       15.9994           0
     47345 WT3      8416     TIP3     H1       HT       0.417000        1.0080           0
     47346 WT3      8416     TIP3     H2       HT       0.417000        1.0080           0
     47347 WT3      8419     TIP3     OH2      OT      -0.834000       15.9994           0
     47348 WT3      8419     TIP3     H1       HT       0.417000        1.0080           0
     47349 WT3      8419     TIP3     H2       HT       0.417000        1.0080           0
     47350 WT3      8420     TIP3     OH2      OT      -0.834000       15.9994           0
     47351 WT3      8420     TIP3     H1       HT       0.417000        1.0080           0
     47352 WT3      8420     TIP3     H2       HT       0.417000        1.0080           0
     47353 WT3      8421     TIP3     OH2      OT      -0.834000       15.9994           0
     47354 WT3      8421     TIP3     H1       HT       0.417000        1.0080           0
     47355 WT3      8421     TIP3     H2       HT       0.417000        1.0080           0
     47356 WT3      8422     TIP3     OH2      OT      -0.834000       15.9994           0
     47357 WT3      8422     TIP3     H1       HT       0.417000        1.0080           0
     47358 WT3      8422     TIP3     H2       HT       0.417000        1.0080           0
     47359 WT3      8423     TIP3     OH2      OT      -0.834000       15.9994           0
     47360 WT3      8423     TIP3     H1       HT       0.417000        1.0080           0
     47361 WT3      8423     TIP3     H2       HT       0.417000        1.0080           0
     47362 WT3      8424     TIP3     OH2      OT      -0.834000       15.9994           0
     47363 WT3      8424     TIP3     H1       HT       0.417000        1.0080           0
     47364 WT3      8424     TIP3     H2       HT       0.417000        1.0080           0
     47365 WT3      8425     TIP3     OH2      OT      -0.834000       15.9994           0
     47366 WT3      8425     TIP3     H1       HT       0.417000        1.0080           0
     47367 WT3      8425     TIP3     H2       HT       0.417000        1.0080           0
     47368 WT3      8426     TIP3     OH2      OT      -0.834000       15.9994           0
     47369 WT3      8426     TIP3     H1       HT       0.417000        1.0080           0
     47370 WT3      8426     TIP3     H2       HT       0.417000        1.0080           0
     47371 WT3      8427     TIP3     OH2      OT      -0.834000       15.9994           0
     47372 WT3      8427     TIP3     H1       HT       0.417000        1.0080           0
     47373 WT3      8427     TIP3     H2       HT       0.417000        1.0080           0
     47374 WT3      8429     TIP3     OH2      OT      -0.834000       15.9994           0
     47375 WT3      8429     TIP3     H1       HT       0.417000        1.0080           0
     47376 WT3      8429     TIP3     H2       HT       0.417000        1.0080           0
     47377 WT3      8430     TIP3     OH2      OT      -0.834000       15.9994           0
     47378 WT3      8430     TIP3     H1       HT       0.417000        1.0080           0
     47379 WT3      8430     TIP3     H2       HT       0.417000        1.0080           0
     47380 WT3      8431     TIP3     OH2      OT      -0.834000       15.9994           0
     47381 WT3      8431     TIP3     H1       HT       0.417000        1.0080           0
     47382 WT3      8431     TIP3     H2       HT       0.417000        1.0080           0
     47383 WT3      8432     TIP3     OH2      OT      -0.834000       15.9994           0
     47384 WT3      8432     TIP3     H1       HT       0.417000        1.0080           0
     47385 WT3      8432     TIP3     H2       HT       0.417000        1.0080           0
     47386 WT3      8433     TIP3     OH2      OT      -0.834000       15.9994           0
     47387 WT3      8433     TIP3     H1       HT       0.417000        1.0080           0
     47388 WT3      8433     TIP3     H2       HT       0.417000        1.0080           0
     47389 WT3      8434     TIP3     OH2      OT      -0.834000       15.9994           0
     47390 WT3      8434     TIP3     H1       HT       0.417000        1.0080           0
     47391 WT3      8434     TIP3     H2       HT       0.417000        1.0080           0
     47392 WT3      8435     TIP3     OH2      OT      -0.834000       15.9994           0
     47393 WT3      8435     TIP3     H1       HT       0.417000        1.0080           0
     47394 WT3      8435     TIP3     H2       HT       0.417000        1.0080           0
     47395 WT3      8436     TIP3     OH2      OT      -0.834000       15.9994           0
     47396 WT3      8436     TIP3     H1       HT       0.417000        1.0080           0
     47397 WT3      8436     TIP3     H2       HT       0.417000        1.0080           0
     47398 WT3      8437     TIP3     OH2      OT      -0.834000       15.9994           0
     47399 WT3      8437     TIP3     H1       HT       0.417000        1.0080           0
     47400 WT3      8437     TIP3     H2       HT       0.417000        1.0080           0
     47401 WT3      8438     TIP3     OH2      OT      -0.834000       15.9994           0
     47402 WT3      8438     TIP3     H1       HT       0.417000        1.0080           0
     47403 WT3      8438     TIP3     H2       HT       0.417000        1.0080           0
     47404 WT3      8439     TIP3     OH2      OT      -0.834000       15.9994           0
     47405 WT3      8439     TIP3     H1       HT       0.417000        1.0080           0
     47406 WT3      8439     TIP3     H2       HT       0.417000        1.0080           0
     47407 WT3      8441     TIP3     OH2      OT      -0.834000       15.9994           0
     47408 WT3      8441     TIP3     H1       HT       0.417000        1.0080           0
     47409 WT3      8441     TIP3     H2       HT       0.417000        1.0080           0
     47410 WT3      8442     TIP3     OH2      OT      -0.834000       15.9994           0
     47411 WT3      8442     TIP3     H1       HT       0.417000        1.0080           0
     47412 WT3      8442     TIP3     H2       HT       0.417000        1.0080           0
     47413 WT3      8444     TIP3     OH2      OT      -0.834000       15.9994           0
     47414 WT3      8444     TIP3     H1       HT       0.417000        1.0080           0
     47415 WT3      8444     TIP3     H2       HT       0.417000        1.0080           0
     47416 WT3      8445     TIP3     OH2      OT      -0.834000       15.9994           0
     47417 WT3      8445     TIP3     H1       HT       0.417000        1.0080           0
     47418 WT3      8445     TIP3     H2       HT       0.417000        1.0080           0
     47419 WT3      8446     TIP3     OH2      OT      -0.834000       15.9994           0
     47420 WT3      8446     TIP3     H1       HT       0.417000        1.0080           0
     47421 WT3      8446     TIP3     H2       HT       0.417000        1.0080           0
     47422 WT3      8447     TIP3     OH2      OT      -0.834000       15.9994           0
     47423 WT3      8447     TIP3     H1       HT       0.417000        1.0080           0
     47424 WT3      8447     TIP3     H2       HT       0.417000        1.0080           0
     47425 WT3      8448     TIP3     OH2      OT      -0.834000       15.9994           0
     47426 WT3      8448     TIP3     H1       HT       0.417000        1.0080           0
     47427 WT3      8448     TIP3     H2       HT       0.417000        1.0080           0
     47428 WT3      8450     TIP3     OH2      OT      -0.834000       15.9994           0
     47429 WT3      8450     TIP3     H1       HT       0.417000        1.0080           0
     47430 WT3      8450     TIP3     H2       HT       0.417000        1.0080           0
     47431 WT3      8451     TIP3     OH2      OT      -0.834000       15.9994           0
     47432 WT3      8451     TIP3     H1       HT       0.417000        1.0080           0
     47433 WT3      8451     TIP3     H2       HT       0.417000        1.0080           0
     47434 WT3      8453     TIP3     OH2      OT      -0.834000       15.9994           0
     47435 WT3      8453     TIP3     H1       HT       0.417000        1.0080           0
     47436 WT3      8453     TIP3     H2       HT       0.417000        1.0080           0
     47437 WT3      8455     TIP3     OH2      OT      -0.834000       15.9994           0
     47438 WT3      8455     TIP3     H1       HT       0.417000        1.0080           0
     47439 WT3      8455     TIP3     H2       HT       0.417000        1.0080           0
     47440 WT3      8456     TIP3     OH2      OT      -0.834000       15.9994           0
     47441 WT3      8456     TIP3     H1       HT       0.417000        1.0080           0
     47442 WT3      8456     TIP3     H2       HT       0.417000        1.0080           0
     47443 WT3      8457     TIP3     OH2      OT      -0.834000       15.9994           0
     47444 WT3      8457     TIP3     H1       HT       0.417000        1.0080           0
     47445 WT3      8457     TIP3     H2       HT       0.417000        1.0080           0
     47446 WT3      8458     TIP3     OH2      OT      -0.834000       15.9994           0
     47447 WT3      8458     TIP3     H1       HT       0.417000        1.0080           0
     47448 WT3      8458     TIP3     H2       HT       0.417000        1.0080           0
     47449 WT3      8459     TIP3     OH2      OT      -0.834000       15.9994           0
     47450 WT3      8459     TIP3     H1       HT       0.417000        1.0080           0
     47451 WT3      8459     TIP3     H2       HT       0.417000        1.0080           0
     47452 WT3      8461     TIP3     OH2      OT      -0.834000       15.9994           0
     47453 WT3      8461     TIP3     H1       HT       0.417000        1.0080           0
     47454 WT3      8461     TIP3     H2       HT       0.417000        1.0080           0
     47455 WT3      8462     TIP3     OH2      OT      -0.834000       15.9994           0
     47456 WT3      8462     TIP3     H1       HT       0.417000        1.0080           0
     47457 WT3      8462     TIP3     H2       HT       0.417000        1.0080           0
     47458 WT3      8464     TIP3     OH2      OT      -0.834000       15.9994           0
     47459 WT3      8464     TIP3     H1       HT       0.417000        1.0080           0
     47460 WT3      8464     TIP3     H2       HT       0.417000        1.0080           0
     47461 WT3      8465     TIP3     OH2      OT      -0.834000       15.9994           0
     47462 WT3      8465     TIP3     H1       HT       0.417000        1.0080           0
     47463 WT3      8465     TIP3     H2       HT       0.417000        1.0080           0
     47464 WT3      8466     TIP3     OH2      OT      -0.834000       15.9994           0
     47465 WT3      8466     TIP3     H1       HT       0.417000        1.0080           0
     47466 WT3      8466     TIP3     H2       HT       0.417000        1.0080           0
     47467 WT3      8467     TIP3     OH2      OT      -0.834000       15.9994           0
     47468 WT3      8467     TIP3     H1       HT       0.417000        1.0080           0
     47469 WT3      8467     TIP3     H2       HT       0.417000        1.0080           0
     47470 WT3      8468     TIP3     OH2      OT      -0.834000       15.9994           0
     47471 WT3      8468     TIP3     H1       HT       0.417000        1.0080           0
     47472 WT3      8468     TIP3     H2       HT       0.417000        1.0080           0
     47473 WT3      8469     TIP3     OH2      OT      -0.834000       15.9994           0
     47474 WT3      8469     TIP3     H1       HT       0.417000        1.0080           0
     47475 WT3      8469     TIP3     H2       HT       0.417000        1.0080           0
     47476 WT3      8470     TIP3     OH2      OT      -0.834000       15.9994           0
     47477 WT3      8470     TIP3     H1       HT       0.417000        1.0080           0
     47478 WT3      8470     TIP3     H2       HT       0.417000        1.0080           0
     47479 WT3      8472     TIP3     OH2      OT      -0.834000       15.9994           0
     47480 WT3      8472     TIP3     H1       HT       0.417000        1.0080           0
     47481 WT3      8472     TIP3     H2       HT       0.417000        1.0080           0
     47482 WT3      8473     TIP3     OH2      OT      -0.834000       15.9994           0
     47483 WT3      8473     TIP3     H1       HT       0.417000        1.0080           0
     47484 WT3      8473     TIP3     H2       HT       0.417000        1.0080           0
     47485 WT3      8474     TIP3     OH2      OT      -0.834000       15.9994           0
     47486 WT3      8474     TIP3     H1       HT       0.417000        1.0080           0
     47487 WT3      8474     TIP3     H2       HT       0.417000        1.0080           0
     47488 WT3      8475     TIP3     OH2      OT      -0.834000       15.9994           0
     47489 WT3      8475     TIP3     H1       HT       0.417000        1.0080           0
     47490 WT3      8475     TIP3     H2       HT       0.417000        1.0080           0
     47491 WT3      8476     TIP3     OH2      OT      -0.834000       15.9994           0
     47492 WT3      8476     TIP3     H1       HT       0.417000        1.0080           0
     47493 WT3      8476     TIP3     H2       HT       0.417000        1.0080           0
     47494 WT3      8477     TIP3     OH2      OT      -0.834000       15.9994           0
     47495 WT3      8477     TIP3     H1       HT       0.417000        1.0080           0
     47496 WT3      8477     TIP3     H2       HT       0.417000        1.0080           0
     47497 WT3      8478     TIP3     OH2      OT      -0.834000       15.9994           0
     47498 WT3      8478     TIP3     H1       HT       0.417000        1.0080           0
     47499 WT3      8478     TIP3     H2       HT       0.417000        1.0080           0
     47500 WT3      8479     TIP3     OH2      OT      -0.834000       15.9994           0
     47501 WT3      8479     TIP3     H1       HT       0.417000        1.0080           0
     47502 WT3      8479     TIP3     H2       HT       0.417000        1.0080           0
     47503 WT3      8480     TIP3     OH2      OT      -0.834000       15.9994           0
     47504 WT3      8480     TIP3     H1       HT       0.417000        1.0080           0
     47505 WT3      8480     TIP3     H2       HT       0.417000        1.0080           0
     47506 WT3      8481     TIP3     OH2      OT      -0.834000       15.9994           0
     47507 WT3      8481     TIP3     H1       HT       0.417000        1.0080           0
     47508 WT3      8481     TIP3     H2       HT       0.417000        1.0080           0
     47509 WT3      8482     TIP3     OH2      OT      -0.834000       15.9994           0
     47510 WT3      8482     TIP3     H1       HT       0.417000        1.0080           0
     47511 WT3      8482     TIP3     H2       HT       0.417000        1.0080           0
     47512 WT3      8483     TIP3     OH2      OT      -0.834000       15.9994           0
     47513 WT3      8483     TIP3     H1       HT       0.417000        1.0080           0
     47514 WT3      8483     TIP3     H2       HT       0.417000        1.0080           0
     47515 WT3      8484     TIP3     OH2      OT      -0.834000       15.9994           0
     47516 WT3      8484     TIP3     H1       HT       0.417000        1.0080           0
     47517 WT3      8484     TIP3     H2       HT       0.417000        1.0080           0
     47518 WT3      8485     TIP3     OH2      OT      -0.834000       15.9994           0
     47519 WT3      8485     TIP3     H1       HT       0.417000        1.0080           0
     47520 WT3      8485     TIP3     H2       HT       0.417000        1.0080           0
     47521 WT3      8486     TIP3     OH2      OT      -0.834000       15.9994           0
     47522 WT3      8486     TIP3     H1       HT       0.417000        1.0080           0
     47523 WT3      8486     TIP3     H2       HT       0.417000        1.0080           0
     47524 WT3      8489     TIP3     OH2      OT      -0.834000       15.9994           0
     47525 WT3      8489     TIP3     H1       HT       0.417000        1.0080           0
     47526 WT3      8489     TIP3     H2       HT       0.417000        1.0080           0
     47527 WT3      8490     TIP3     OH2      OT      -0.834000       15.9994           0
     47528 WT3      8490     TIP3     H1       HT       0.417000        1.0080           0
     47529 WT3      8490     TIP3     H2       HT       0.417000        1.0080           0
     47530 WT3      8491     TIP3     OH2      OT      -0.834000       15.9994           0
     47531 WT3      8491     TIP3     H1       HT       0.417000        1.0080           0
     47532 WT3      8491     TIP3     H2       HT       0.417000        1.0080           0
     47533 WT3      8492     TIP3     OH2      OT      -0.834000       15.9994           0
     47534 WT3      8492     TIP3     H1       HT       0.417000        1.0080           0
     47535 WT3      8492     TIP3     H2       HT       0.417000        1.0080           0
     47536 WT3      8495     TIP3     OH2      OT      -0.834000       15.9994           0
     47537 WT3      8495     TIP3     H1       HT       0.417000        1.0080           0
     47538 WT3      8495     TIP3     H2       HT       0.417000        1.0080           0
     47539 WT3      8496     TIP3     OH2      OT      -0.834000       15.9994           0
     47540 WT3      8496     TIP3     H1       HT       0.417000        1.0080           0
     47541 WT3      8496     TIP3     H2       HT       0.417000        1.0080           0
     47542 WT3      8497     TIP3     OH2      OT      -0.834000       15.9994           0
     47543 WT3      8497     TIP3     H1       HT       0.417000        1.0080           0
     47544 WT3      8497     TIP3     H2       HT       0.417000        1.0080           0
     47545 WT3      8498     TIP3     OH2      OT      -0.834000       15.9994           0
     47546 WT3      8498     TIP3     H1       HT       0.417000        1.0080           0
     47547 WT3      8498     TIP3     H2       HT       0.417000        1.0080           0
     47548 WT3      8499     TIP3     OH2      OT      -0.834000       15.9994           0
     47549 WT3      8499     TIP3     H1       HT       0.417000        1.0080           0
     47550 WT3      8499     TIP3     H2       HT       0.417000        1.0080           0
     47551 WT3      8501     TIP3     OH2      OT      -0.834000       15.9994           0
     47552 WT3      8501     TIP3     H1       HT       0.417000        1.0080           0
     47553 WT3      8501     TIP3     H2       HT       0.417000        1.0080           0
     47554 WT3      8502     TIP3     OH2      OT      -0.834000       15.9994           0
     47555 WT3      8502     TIP3     H1       HT       0.417000        1.0080           0
     47556 WT3      8502     TIP3     H2       HT       0.417000        1.0080           0
     47557 WT3      8503     TIP3     OH2      OT      -0.834000       15.9994           0
     47558 WT3      8503     TIP3     H1       HT       0.417000        1.0080           0
     47559 WT3      8503     TIP3     H2       HT       0.417000        1.0080           0
     47560 WT3      8505     TIP3     OH2      OT      -0.834000       15.9994           0
     47561 WT3      8505     TIP3     H1       HT       0.417000        1.0080           0
     47562 WT3      8505     TIP3     H2       HT       0.417000        1.0080           0
     47563 WT3      8509     TIP3     OH2      OT      -0.834000       15.9994           0
     47564 WT3      8509     TIP3     H1       HT       0.417000        1.0080           0
     47565 WT3      8509     TIP3     H2       HT       0.417000        1.0080           0
     47566 WT3      8510     TIP3     OH2      OT      -0.834000       15.9994           0
     47567 WT3      8510     TIP3     H1       HT       0.417000        1.0080           0
     47568 WT3      8510     TIP3     H2       HT       0.417000        1.0080           0
     47569 WT3      8511     TIP3     OH2      OT      -0.834000       15.9994           0
     47570 WT3      8511     TIP3     H1       HT       0.417000        1.0080           0
     47571 WT3      8511     TIP3     H2       HT       0.417000        1.0080           0
     47572 WT3      8512     TIP3     OH2      OT      -0.834000       15.9994           0
     47573 WT3      8512     TIP3     H1       HT       0.417000        1.0080           0
     47574 WT3      8512     TIP3     H2       HT       0.417000        1.0080           0
     47575 WT3      8513     TIP3     OH2      OT      -0.834000       15.9994           0
     47576 WT3      8513     TIP3     H1       HT       0.417000        1.0080           0
     47577 WT3      8513     TIP3     H2       HT       0.417000        1.0080           0
     47578 WT3      8514     TIP3     OH2      OT      -0.834000       15.9994           0
     47579 WT3      8514     TIP3     H1       HT       0.417000        1.0080           0
     47580 WT3      8514     TIP3     H2       HT       0.417000        1.0080           0
     47581 WT3      8515     TIP3     OH2      OT      -0.834000       15.9994           0
     47582 WT3      8515     TIP3     H1       HT       0.417000        1.0080           0
     47583 WT3      8515     TIP3     H2       HT       0.417000        1.0080           0
     47584 WT3      8517     TIP3     OH2      OT      -0.834000       15.9994           0
     47585 WT3      8517     TIP3     H1       HT       0.417000        1.0080           0
     47586 WT3      8517     TIP3     H2       HT       0.417000        1.0080           0
     47587 WT3      8518     TIP3     OH2      OT      -0.834000       15.9994           0
     47588 WT3      8518     TIP3     H1       HT       0.417000        1.0080           0
     47589 WT3      8518     TIP3     H2       HT       0.417000        1.0080           0
     47590 WT3      8520     TIP3     OH2      OT      -0.834000       15.9994           0
     47591 WT3      8520     TIP3     H1       HT       0.417000        1.0080           0
     47592 WT3      8520     TIP3     H2       HT       0.417000        1.0080           0
     47593 WT3      8521     TIP3     OH2      OT      -0.834000       15.9994           0
     47594 WT3      8521     TIP3     H1       HT       0.417000        1.0080           0
     47595 WT3      8521     TIP3     H2       HT       0.417000        1.0080           0
     47596 WT3      8523     TIP3     OH2      OT      -0.834000       15.9994           0
     47597 WT3      8523     TIP3     H1       HT       0.417000        1.0080           0
     47598 WT3      8523     TIP3     H2       HT       0.417000        1.0080           0
     47599 WT3      8524     TIP3     OH2      OT      -0.834000       15.9994           0
     47600 WT3      8524     TIP3     H1       HT       0.417000        1.0080           0
     47601 WT3      8524     TIP3     H2       HT       0.417000        1.0080           0
     47602 WT3      8525     TIP3     OH2      OT      -0.834000       15.9994           0
     47603 WT3      8525     TIP3     H1       HT       0.417000        1.0080           0
     47604 WT3      8525     TIP3     H2       HT       0.417000        1.0080           0
     47605 WT3      8526     TIP3     OH2      OT      -0.834000       15.9994           0
     47606 WT3      8526     TIP3     H1       HT       0.417000        1.0080           0
     47607 WT3      8526     TIP3     H2       HT       0.417000        1.0080           0
     47608 WT3      8528     TIP3     OH2      OT      -0.834000       15.9994           0
     47609 WT3      8528     TIP3     H1       HT       0.417000        1.0080           0
     47610 WT3      8528     TIP3     H2       HT       0.417000        1.0080           0
     47611 WT3      8530     TIP3     OH2      OT      -0.834000       15.9994           0
     47612 WT3      8530     TIP3     H1       HT       0.417000        1.0080           0
     47613 WT3      8530     TIP3     H2       HT       0.417000        1.0080           0
     47614 WT3      8534     TIP3     OH2      OT      -0.834000       15.9994           0
     47615 WT3      8534     TIP3     H1       HT       0.417000        1.0080           0
     47616 WT3      8534     TIP3     H2       HT       0.417000        1.0080           0
     47617 WT3      8535     TIP3     OH2      OT      -0.834000       15.9994           0
     47618 WT3      8535     TIP3     H1       HT       0.417000        1.0080           0
     47619 WT3      8535     TIP3     H2       HT       0.417000        1.0080           0
     47620 WT3      8536     TIP3     OH2      OT      -0.834000       15.9994           0
     47621 WT3      8536     TIP3     H1       HT       0.417000        1.0080           0
     47622 WT3      8536     TIP3     H2       HT       0.417000        1.0080           0
     47623 WT3      8539     TIP3     OH2      OT      -0.834000       15.9994           0
     47624 WT3      8539     TIP3     H1       HT       0.417000        1.0080           0
     47625 WT3      8539     TIP3     H2       HT       0.417000        1.0080           0
     47626 WT3      8541     TIP3     OH2      OT      -0.834000       15.9994           0
     47627 WT3      8541     TIP3     H1       HT       0.417000        1.0080           0
     47628 WT3      8541     TIP3     H2       HT       0.417000        1.0080           0
     47629 WT3      8545     TIP3     OH2      OT      -0.834000       15.9994           0
     47630 WT3      8545     TIP3     H1       HT       0.417000        1.0080           0
     47631 WT3      8545     TIP3     H2       HT       0.417000        1.0080           0
     47632 WT3      8548     TIP3     OH2      OT      -0.834000       15.9994           0
     47633 WT3      8548     TIP3     H1       HT       0.417000        1.0080           0
     47634 WT3      8548     TIP3     H2       HT       0.417000        1.0080           0
     47635 WT3      8552     TIP3     OH2      OT      -0.834000       15.9994           0
     47636 WT3      8552     TIP3     H1       HT       0.417000        1.0080           0
     47637 WT3      8552     TIP3     H2       HT       0.417000        1.0080           0
     47638 WT3      8555     TIP3     OH2      OT      -0.834000       15.9994           0
     47639 WT3      8555     TIP3     H1       HT       0.417000        1.0080           0
     47640 WT3      8555     TIP3     H2       HT       0.417000        1.0080           0
     47641 WT3      8556     TIP3     OH2      OT      -0.834000       15.9994           0
     47642 WT3      8556     TIP3     H1       HT       0.417000        1.0080           0
     47643 WT3      8556     TIP3     H2       HT       0.417000        1.0080           0
     47644 WT3      8559     TIP3     OH2      OT      -0.834000       15.9994           0
     47645 WT3      8559     TIP3     H1       HT       0.417000        1.0080           0
     47646 WT3      8559     TIP3     H2       HT       0.417000        1.0080           0
     47647 WT3      8560     TIP3     OH2      OT      -0.834000       15.9994           0
     47648 WT3      8560     TIP3     H1       HT       0.417000        1.0080           0
     47649 WT3      8560     TIP3     H2       HT       0.417000        1.0080           0
     47650 WT3      8562     TIP3     OH2      OT      -0.834000       15.9994           0
     47651 WT3      8562     TIP3     H1       HT       0.417000        1.0080           0
     47652 WT3      8562     TIP3     H2       HT       0.417000        1.0080           0
     47653 WT3      8565     TIP3     OH2      OT      -0.834000       15.9994           0
     47654 WT3      8565     TIP3     H1       HT       0.417000        1.0080           0
     47655 WT3      8565     TIP3     H2       HT       0.417000        1.0080           0
     47656 WT3      8566     TIP3     OH2      OT      -0.834000       15.9994           0
     47657 WT3      8566     TIP3     H1       HT       0.417000        1.0080           0
     47658 WT3      8566     TIP3     H2       HT       0.417000        1.0080           0
     47659 WT3      8581     TIP3     OH2      OT      -0.834000       15.9994           0
     47660 WT3      8581     TIP3     H1       HT       0.417000        1.0080           0
     47661 WT3      8581     TIP3     H2       HT       0.417000        1.0080           0
     47662 WT3      8583     TIP3     OH2      OT      -0.834000       15.9994           0
     47663 WT3      8583     TIP3     H1       HT       0.417000        1.0080           0
     47664 WT3      8583     TIP3     H2       HT       0.417000        1.0080           0
     47665 WT3      8590     TIP3     OH2      OT      -0.834000       15.9994           0
     47666 WT3      8590     TIP3     H1       HT       0.417000        1.0080           0
     47667 WT3      8590     TIP3     H2       HT       0.417000        1.0080           0
     47668 WT3      8602     TIP3     OH2      OT      -0.834000       15.9994           0
     47669 WT3      8602     TIP3     H1       HT       0.417000        1.0080           0
     47670 WT3      8602     TIP3     H2       HT       0.417000        1.0080           0
     47671 WT3      8640     TIP3     OH2      OT      -0.834000       15.9994           0
     47672 WT3      8640     TIP3     H1       HT       0.417000        1.0080           0
     47673 WT3      8640     TIP3     H2       HT       0.417000        1.0080           0
     47674 WT3      8753     TIP3     OH2      OT      -0.834000       15.9994           0
     47675 WT3      8753     TIP3     H1       HT       0.417000        1.0080           0
     47676 WT3      8753     TIP3     H2       HT       0.417000        1.0080           0
     47677 WT3      8760     TIP3     OH2      OT      -0.834000       15.9994           0
     47678 WT3      8760     TIP3     H1       HT       0.417000        1.0080           0
     47679 WT3      8760     TIP3     H2       HT       0.417000        1.0080           0
     47680 WT3      8762     TIP3     OH2      OT      -0.834000       15.9994           0
     47681 WT3      8762     TIP3     H1       HT       0.417000        1.0080           0
     47682 WT3      8762     TIP3     H2       HT       0.417000        1.0080           0
     47683 WT3      8777     TIP3     OH2      OT      -0.834000       15.9994           0
     47684 WT3      8777     TIP3     H1       HT       0.417000        1.0080           0
     47685 WT3      8777     TIP3     H2       HT       0.417000        1.0080           0
     47686 WT3      8779     TIP3     OH2      OT      -0.834000       15.9994           0
     47687 WT3      8779     TIP3     H1       HT       0.417000        1.0080           0
     47688 WT3      8779     TIP3     H2       HT       0.417000        1.0080           0
     47689 WT3      8780     TIP3     OH2      OT      -0.834000       15.9994           0
     47690 WT3      8780     TIP3     H1       HT       0.417000        1.0080           0
     47691 WT3      8780     TIP3     H2       HT       0.417000        1.0080           0
     47692 WT3      8782     TIP3     OH2      OT      -0.834000       15.9994           0
     47693 WT3      8782     TIP3     H1       HT       0.417000        1.0080           0
     47694 WT3      8782     TIP3     H2       HT       0.417000        1.0080           0
     47695 WT3      8790     TIP3     OH2      OT      -0.834000       15.9994           0
     47696 WT3      8790     TIP3     H1       HT       0.417000        1.0080           0
     47697 WT3      8790     TIP3     H2       HT       0.417000        1.0080           0
     47698 WT3      8792     TIP3     OH2      OT      -0.834000       15.9994           0
     47699 WT3      8792     TIP3     H1       HT       0.417000        1.0080           0
     47700 WT3      8792     TIP3     H2       HT       0.417000        1.0080           0
     47701 WT3      8794     TIP3     OH2      OT      -0.834000       15.9994           0
     47702 WT3      8794     TIP3     H1       HT       0.417000        1.0080           0
     47703 WT3      8794     TIP3     H2       HT       0.417000        1.0080           0
     47704 WT3      8799     TIP3     OH2      OT      -0.834000       15.9994           0
     47705 WT3      8799     TIP3     H1       HT       0.417000        1.0080           0
     47706 WT3      8799     TIP3     H2       HT       0.417000        1.0080           0
     47707 WT3      8801     TIP3     OH2      OT      -0.834000       15.9994           0
     47708 WT3      8801     TIP3     H1       HT       0.417000        1.0080           0
     47709 WT3      8801     TIP3     H2       HT       0.417000        1.0080           0
     47710 WT3      8802     TIP3     OH2      OT      -0.834000       15.9994           0
     47711 WT3      8802     TIP3     H1       HT       0.417000        1.0080           0
     47712 WT3      8802     TIP3     H2       HT       0.417000        1.0080           0
     47713 WT3      8803     TIP3     OH2      OT      -0.834000       15.9994           0
     47714 WT3      8803     TIP3     H1       HT       0.417000        1.0080           0
     47715 WT3      8803     TIP3     H2       HT       0.417000        1.0080           0
     47716 WT3      8807     TIP3     OH2      OT      -0.834000       15.9994           0
     47717 WT3      8807     TIP3     H1       HT       0.417000        1.0080           0
     47718 WT3      8807     TIP3     H2       HT       0.417000        1.0080           0
     47719 WT3      8813     TIP3     OH2      OT      -0.834000       15.9994           0
     47720 WT3      8813     TIP3     H1       HT       0.417000        1.0080           0
     47721 WT3      8813     TIP3     H2       HT       0.417000        1.0080           0
     47722 WT3      8816     TIP3     OH2      OT      -0.834000       15.9994           0
     47723 WT3      8816     TIP3     H1       HT       0.417000        1.0080           0
     47724 WT3      8816     TIP3     H2       HT       0.417000        1.0080           0
     47725 WT3      8820     TIP3     OH2      OT      -0.834000       15.9994           0
     47726 WT3      8820     TIP3     H1       HT       0.417000        1.0080           0
     47727 WT3      8820     TIP3     H2       HT       0.417000        1.0080           0
     47728 WT3      8822     TIP3     OH2      OT      -0.834000       15.9994           0
     47729 WT3      8822     TIP3     H1       HT       0.417000        1.0080           0
     47730 WT3      8822     TIP3     H2       HT       0.417000        1.0080           0
     47731 WT3      8823     TIP3     OH2      OT      -0.834000       15.9994           0
     47732 WT3      8823     TIP3     H1       HT       0.417000        1.0080           0
     47733 WT3      8823     TIP3     H2       HT       0.417000        1.0080           0
     47734 WT3      8824     TIP3     OH2      OT      -0.834000       15.9994           0
     47735 WT3      8824     TIP3     H1       HT       0.417000        1.0080           0
     47736 WT3      8824     TIP3     H2       HT       0.417000        1.0080           0
     47737 WT3      8829     TIP3     OH2      OT      -0.834000       15.9994           0
     47738 WT3      8829     TIP3     H1       HT       0.417000        1.0080           0
     47739 WT3      8829     TIP3     H2       HT       0.417000        1.0080           0
     47740 WT3      8830     TIP3     OH2      OT      -0.834000       15.9994           0
     47741 WT3      8830     TIP3     H1       HT       0.417000        1.0080           0
     47742 WT3      8830     TIP3     H2       HT       0.417000        1.0080           0
     47743 WT3      8831     TIP3     OH2      OT      -0.834000       15.9994           0
     47744 WT3      8831     TIP3     H1       HT       0.417000        1.0080           0
     47745 WT3      8831     TIP3     H2       HT       0.417000        1.0080           0
     47746 WT3      8833     TIP3     OH2      OT      -0.834000       15.9994           0
     47747 WT3      8833     TIP3     H1       HT       0.417000        1.0080           0
     47748 WT3      8833     TIP3     H2       HT       0.417000        1.0080           0
     47749 WT3      8836     TIP3     OH2      OT      -0.834000       15.9994           0
     47750 WT3      8836     TIP3     H1       HT       0.417000        1.0080           0
     47751 WT3      8836     TIP3     H2       HT       0.417000        1.0080           0
     47752 WT3      8837     TIP3     OH2      OT      -0.834000       15.9994           0
     47753 WT3      8837     TIP3     H1       HT       0.417000        1.0080           0
     47754 WT3      8837     TIP3     H2       HT       0.417000        1.0080           0
     47755 WT3      8838     TIP3     OH2      OT      -0.834000       15.9994           0
     47756 WT3      8838     TIP3     H1       HT       0.417000        1.0080           0
     47757 WT3      8838     TIP3     H2       HT       0.417000        1.0080           0
     47758 WT3      8840     TIP3     OH2      OT      -0.834000       15.9994           0
     47759 WT3      8840     TIP3     H1       HT       0.417000        1.0080           0
     47760 WT3      8840     TIP3     H2       HT       0.417000        1.0080           0
     47761 WT3      8842     TIP3     OH2      OT      -0.834000       15.9994           0
     47762 WT3      8842     TIP3     H1       HT       0.417000        1.0080           0
     47763 WT3      8842     TIP3     H2       HT       0.417000        1.0080           0
     47764 WT3      8843     TIP3     OH2      OT      -0.834000       15.9994           0
     47765 WT3      8843     TIP3     H1       HT       0.417000        1.0080           0
     47766 WT3      8843     TIP3     H2       HT       0.417000        1.0080           0
     47767 WT3      8844     TIP3     OH2      OT      -0.834000       15.9994           0
     47768 WT3      8844     TIP3     H1       HT       0.417000        1.0080           0
     47769 WT3      8844     TIP3     H2       HT       0.417000        1.0080           0
     47770 WT3      8845     TIP3     OH2      OT      -0.834000       15.9994           0
     47771 WT3      8845     TIP3     H1       HT       0.417000        1.0080           0
     47772 WT3      8845     TIP3     H2       HT       0.417000        1.0080           0
     47773 WT3      8846     TIP3     OH2      OT      -0.834000       15.9994           0
     47774 WT3      8846     TIP3     H1       HT       0.417000        1.0080           0
     47775 WT3      8846     TIP3     H2       HT       0.417000        1.0080           0
     47776 WT3      8847     TIP3     OH2      OT      -0.834000       15.9994           0
     47777 WT3      8847     TIP3     H1       HT       0.417000        1.0080           0
     47778 WT3      8847     TIP3     H2       HT       0.417000        1.0080           0
     47779 WT3      8848     TIP3     OH2      OT      -0.834000       15.9994           0
     47780 WT3      8848     TIP3     H1       HT       0.417000        1.0080           0
     47781 WT3      8848     TIP3     H2       HT       0.417000        1.0080           0
     47782 WT3      8849     TIP3     OH2      OT      -0.834000       15.9994           0
     47783 WT3      8849     TIP3     H1       HT       0.417000        1.0080           0
     47784 WT3      8849     TIP3     H2       HT       0.417000        1.0080           0
     47785 WT3      8850     TIP3     OH2      OT      -0.834000       15.9994           0
     47786 WT3      8850     TIP3     H1       HT       0.417000        1.0080           0
     47787 WT3      8850     TIP3     H2       HT       0.417000        1.0080           0
     47788 WT3      8852     TIP3     OH2      OT      -0.834000       15.9994           0
     47789 WT3      8852     TIP3     H1       HT       0.417000        1.0080           0
     47790 WT3      8852     TIP3     H2       HT       0.417000        1.0080           0
     47791 WT3      8855     TIP3     OH2      OT      -0.834000       15.9994           0
     47792 WT3      8855     TIP3     H1       HT       0.417000        1.0080           0
     47793 WT3      8855     TIP3     H2       HT       0.417000        1.0080           0
     47794 WT3      8856     TIP3     OH2      OT      -0.834000       15.9994           0
     47795 WT3      8856     TIP3     H1       HT       0.417000        1.0080           0
     47796 WT3      8856     TIP3     H2       HT       0.417000        1.0080           0
     47797 WT3      8857     TIP3     OH2      OT      -0.834000       15.9994           0
     47798 WT3      8857     TIP3     H1       HT       0.417000        1.0080           0
     47799 WT3      8857     TIP3     H2       HT       0.417000        1.0080           0
     47800 WT3      8859     TIP3     OH2      OT      -0.834000       15.9994           0
     47801 WT3      8859     TIP3     H1       HT       0.417000        1.0080           0
     47802 WT3      8859     TIP3     H2       HT       0.417000        1.0080           0
     47803 WT3      8861     TIP3     OH2      OT      -0.834000       15.9994           0
     47804 WT3      8861     TIP3     H1       HT       0.417000        1.0080           0
     47805 WT3      8861     TIP3     H2       HT       0.417000        1.0080           0
     47806 WT3      8863     TIP3     OH2      OT      -0.834000       15.9994           0
     47807 WT3      8863     TIP3     H1       HT       0.417000        1.0080           0
     47808 WT3      8863     TIP3     H2       HT       0.417000        1.0080           0
     47809 WT3      8864     TIP3     OH2      OT      -0.834000       15.9994           0
     47810 WT3      8864     TIP3     H1       HT       0.417000        1.0080           0
     47811 WT3      8864     TIP3     H2       HT       0.417000        1.0080           0
     47812 WT3      8865     TIP3     OH2      OT      -0.834000       15.9994           0
     47813 WT3      8865     TIP3     H1       HT       0.417000        1.0080           0
     47814 WT3      8865     TIP3     H2       HT       0.417000        1.0080           0
     47815 WT3      8866     TIP3     OH2      OT      -0.834000       15.9994           0
     47816 WT3      8866     TIP3     H1       HT       0.417000        1.0080           0
     47817 WT3      8866     TIP3     H2       HT       0.417000        1.0080           0
     47818 WT3      8867     TIP3     OH2      OT      -0.834000       15.9994           0
     47819 WT3      8867     TIP3     H1       HT       0.417000        1.0080           0
     47820 WT3      8867     TIP3     H2       HT       0.417000        1.0080           0
     47821 WT3      8869     TIP3     OH2      OT      -0.834000       15.9994           0
     47822 WT3      8869     TIP3     H1       HT       0.417000        1.0080           0
     47823 WT3      8869     TIP3     H2       HT       0.417000        1.0080           0
     47824 WT3      8870     TIP3     OH2      OT      -0.834000       15.9994           0
     47825 WT3      8870     TIP3     H1       HT       0.417000        1.0080           0
     47826 WT3      8870     TIP3     H2       HT       0.417000        1.0080           0
     47827 WT3      8871     TIP3     OH2      OT      -0.834000       15.9994           0
     47828 WT3      8871     TIP3     H1       HT       0.417000        1.0080           0
     47829 WT3      8871     TIP3     H2       HT       0.417000        1.0080           0
     47830 WT3      8878     TIP3     OH2      OT      -0.834000       15.9994           0
     47831 WT3      8878     TIP3     H1       HT       0.417000        1.0080           0
     47832 WT3      8878     TIP3     H2       HT       0.417000        1.0080           0
     47833 WT3      8879     TIP3     OH2      OT      -0.834000       15.9994           0
     47834 WT3      8879     TIP3     H1       HT       0.417000        1.0080           0
     47835 WT3      8879     TIP3     H2       HT       0.417000        1.0080           0
     47836 WT3      8881     TIP3     OH2      OT      -0.834000       15.9994           0
     47837 WT3      8881     TIP3     H1       HT       0.417000        1.0080           0
     47838 WT3      8881     TIP3     H2       HT       0.417000        1.0080           0
     47839 WT3      8882     TIP3     OH2      OT      -0.834000       15.9994           0
     47840 WT3      8882     TIP3     H1       HT       0.417000        1.0080           0
     47841 WT3      8882     TIP3     H2       HT       0.417000        1.0080           0
     47842 WT3      8883     TIP3     OH2      OT      -0.834000       15.9994           0
     47843 WT3      8883     TIP3     H1       HT       0.417000        1.0080           0
     47844 WT3      8883     TIP3     H2       HT       0.417000        1.0080           0
     47845 WT3      8884     TIP3     OH2      OT      -0.834000       15.9994           0
     47846 WT3      8884     TIP3     H1       HT       0.417000        1.0080           0
     47847 WT3      8884     TIP3     H2       HT       0.417000        1.0080           0
     47848 WT3      8885     TIP3     OH2      OT      -0.834000       15.9994           0
     47849 WT3      8885     TIP3     H1       HT       0.417000        1.0080           0
     47850 WT3      8885     TIP3     H2       HT       0.417000        1.0080           0
     47851 WT3      8886     TIP3     OH2      OT      -0.834000       15.9994           0
     47852 WT3      8886     TIP3     H1       HT       0.417000        1.0080           0
     47853 WT3      8886     TIP3     H2       HT       0.417000        1.0080           0
     47854 WT3      8887     TIP3     OH2      OT      -0.834000       15.9994           0
     47855 WT3      8887     TIP3     H1       HT       0.417000        1.0080           0
     47856 WT3      8887     TIP3     H2       HT       0.417000        1.0080           0
     47857 WT3      8894     TIP3     OH2      OT      -0.834000       15.9994           0
     47858 WT3      8894     TIP3     H1       HT       0.417000        1.0080           0
     47859 WT3      8894     TIP3     H2       HT       0.417000        1.0080           0
     47860 WT3      8895     TIP3     OH2      OT      -0.834000       15.9994           0
     47861 WT3      8895     TIP3     H1       HT       0.417000        1.0080           0
     47862 WT3      8895     TIP3     H2       HT       0.417000        1.0080           0
     47863 WT3      8896     TIP3     OH2      OT      -0.834000       15.9994           0
     47864 WT3      8896     TIP3     H1       HT       0.417000        1.0080           0
     47865 WT3      8896     TIP3     H2       HT       0.417000        1.0080           0
     47866 WT3      8897     TIP3     OH2      OT      -0.834000       15.9994           0
     47867 WT3      8897     TIP3     H1       HT       0.417000        1.0080           0
     47868 WT3      8897     TIP3     H2       HT       0.417000        1.0080           0
     47869 WT3      8898     TIP3     OH2      OT      -0.834000       15.9994           0
     47870 WT3      8898     TIP3     H1       HT       0.417000        1.0080           0
     47871 WT3      8898     TIP3     H2       HT       0.417000        1.0080           0
     47872 WT3      8899     TIP3     OH2      OT      -0.834000       15.9994           0
     47873 WT3      8899     TIP3     H1       HT       0.417000        1.0080           0
     47874 WT3      8899     TIP3     H2       HT       0.417000        1.0080           0
     47875 WT3      8900     TIP3     OH2      OT      -0.834000       15.9994           0
     47876 WT3      8900     TIP3     H1       HT       0.417000        1.0080           0
     47877 WT3      8900     TIP3     H2       HT       0.417000        1.0080           0
     47878 WT3      8901     TIP3     OH2      OT      -0.834000       15.9994           0
     47879 WT3      8901     TIP3     H1       HT       0.417000        1.0080           0
     47880 WT3      8901     TIP3     H2       HT       0.417000        1.0080           0
     47881 WT3      8902     TIP3     OH2      OT      -0.834000       15.9994           0
     47882 WT3      8902     TIP3     H1       HT       0.417000        1.0080           0
     47883 WT3      8902     TIP3     H2       HT       0.417000        1.0080           0
     47884 WT3      8903     TIP3     OH2      OT      -0.834000       15.9994           0
     47885 WT3      8903     TIP3     H1       HT       0.417000        1.0080           0
     47886 WT3      8903     TIP3     H2       HT       0.417000        1.0080           0
     47887 WT3      8904     TIP3     OH2      OT      -0.834000       15.9994           0
     47888 WT3      8904     TIP3     H1       HT       0.417000        1.0080           0
     47889 WT3      8904     TIP3     H2       HT       0.417000        1.0080           0
     47890 WT3      8905     TIP3     OH2      OT      -0.834000       15.9994           0
     47891 WT3      8905     TIP3     H1       HT       0.417000        1.0080           0
     47892 WT3      8905     TIP3     H2       HT       0.417000        1.0080           0
     47893 WT3      8907     TIP3     OH2      OT      -0.834000       15.9994           0
     47894 WT3      8907     TIP3     H1       HT       0.417000        1.0080           0
     47895 WT3      8907     TIP3     H2       HT       0.417000        1.0080           0
     47896 WT3      8910     TIP3     OH2      OT      -0.834000       15.9994           0
     47897 WT3      8910     TIP3     H1       HT       0.417000        1.0080           0
     47898 WT3      8910     TIP3     H2       HT       0.417000        1.0080           0
     47899 WT3      8911     TIP3     OH2      OT      -0.834000       15.9994           0
     47900 WT3      8911     TIP3     H1       HT       0.417000        1.0080           0
     47901 WT3      8911     TIP3     H2       HT       0.417000        1.0080           0
     47902 WT3      8912     TIP3     OH2      OT      -0.834000       15.9994           0
     47903 WT3      8912     TIP3     H1       HT       0.417000        1.0080           0
     47904 WT3      8912     TIP3     H2       HT       0.417000        1.0080           0
     47905 WT3      8913     TIP3     OH2      OT      -0.834000       15.9994           0
     47906 WT3      8913     TIP3     H1       HT       0.417000        1.0080           0
     47907 WT3      8913     TIP3     H2       HT       0.417000        1.0080           0
     47908 WT3      8914     TIP3     OH2      OT      -0.834000       15.9994           0
     47909 WT3      8914     TIP3     H1       HT       0.417000        1.0080           0
     47910 WT3      8914     TIP3     H2       HT       0.417000        1.0080           0
     47911 WT3      8915     TIP3     OH2      OT      -0.834000       15.9994           0
     47912 WT3      8915     TIP3     H1       HT       0.417000        1.0080           0
     47913 WT3      8915     TIP3     H2       HT       0.417000        1.0080           0
     47914 WT3      8917     TIP3     OH2      OT      -0.834000       15.9994           0
     47915 WT3      8917     TIP3     H1       HT       0.417000        1.0080           0
     47916 WT3      8917     TIP3     H2       HT       0.417000        1.0080           0
     47917 WT3      8918     TIP3     OH2      OT      -0.834000       15.9994           0
     47918 WT3      8918     TIP3     H1       HT       0.417000        1.0080           0
     47919 WT3      8918     TIP3     H2       HT       0.417000        1.0080           0
     47920 WT3      8919     TIP3     OH2      OT      -0.834000       15.9994           0
     47921 WT3      8919     TIP3     H1       HT       0.417000        1.0080           0
     47922 WT3      8919     TIP3     H2       HT       0.417000        1.0080           0
     47923 WT3      8920     TIP3     OH2      OT      -0.834000       15.9994           0
     47924 WT3      8920     TIP3     H1       HT       0.417000        1.0080           0
     47925 WT3      8920     TIP3     H2       HT       0.417000        1.0080           0
     47926 WT3      8921     TIP3     OH2      OT      -0.834000       15.9994           0
     47927 WT3      8921     TIP3     H1       HT       0.417000        1.0080           0
     47928 WT3      8921     TIP3     H2       HT       0.417000        1.0080           0
     47929 WT3      8922     TIP3     OH2      OT      -0.834000       15.9994           0
     47930 WT3      8922     TIP3     H1       HT       0.417000        1.0080           0
     47931 WT3      8922     TIP3     H2       HT       0.417000        1.0080           0
     47932 WT3      8923     TIP3     OH2      OT      -0.834000       15.9994           0
     47933 WT3      8923     TIP3     H1       HT       0.417000        1.0080           0
     47934 WT3      8923     TIP3     H2       HT       0.417000        1.0080           0
     47935 WT3      8924     TIP3     OH2      OT      -0.834000       15.9994           0
     47936 WT3      8924     TIP3     H1       HT       0.417000        1.0080           0
     47937 WT3      8924     TIP3     H2       HT       0.417000        1.0080           0
     47938 WT3      8928     TIP3     OH2      OT      -0.834000       15.9994           0
     47939 WT3      8928     TIP3     H1       HT       0.417000        1.0080           0
     47940 WT3      8928     TIP3     H2       HT       0.417000        1.0080           0
     47941 WT3      8929     TIP3     OH2      OT      -0.834000       15.9994           0
     47942 WT3      8929     TIP3     H1       HT       0.417000        1.0080           0
     47943 WT3      8929     TIP3     H2       HT       0.417000        1.0080           0
     47944 WT3      8930     TIP3     OH2      OT      -0.834000       15.9994           0
     47945 WT3      8930     TIP3     H1       HT       0.417000        1.0080           0
     47946 WT3      8930     TIP3     H2       HT       0.417000        1.0080           0
     47947 WT3      8931     TIP3     OH2      OT      -0.834000       15.9994           0
     47948 WT3      8931     TIP3     H1       HT       0.417000        1.0080           0
     47949 WT3      8931     TIP3     H2       HT       0.417000        1.0080           0
     47950 WT3      8932     TIP3     OH2      OT      -0.834000       15.9994           0
     47951 WT3      8932     TIP3     H1       HT       0.417000        1.0080           0
     47952 WT3      8932     TIP3     H2       HT       0.417000        1.0080           0
     47953 WT3      8934     TIP3     OH2      OT      -0.834000       15.9994           0
     47954 WT3      8934     TIP3     H1       HT       0.417000        1.0080           0
     47955 WT3      8934     TIP3     H2       HT       0.417000        1.0080           0
     47956 WT3      8935     TIP3     OH2      OT      -0.834000       15.9994           0
     47957 WT3      8935     TIP3     H1       HT       0.417000        1.0080           0
     47958 WT3      8935     TIP3     H2       HT       0.417000        1.0080           0
     47959 WT3      8936     TIP3     OH2      OT      -0.834000       15.9994           0
     47960 WT3      8936     TIP3     H1       HT       0.417000        1.0080           0
     47961 WT3      8936     TIP3     H2       HT       0.417000        1.0080           0
     47962 WT3      8938     TIP3     OH2      OT      -0.834000       15.9994           0
     47963 WT3      8938     TIP3     H1       HT       0.417000        1.0080           0
     47964 WT3      8938     TIP3     H2       HT       0.417000        1.0080           0
     47965 WT3      8939     TIP3     OH2      OT      -0.834000       15.9994           0
     47966 WT3      8939     TIP3     H1       HT       0.417000        1.0080           0
     47967 WT3      8939     TIP3     H2       HT       0.417000        1.0080           0
     47968 WT3      8940     TIP3     OH2      OT      -0.834000       15.9994           0
     47969 WT3      8940     TIP3     H1       HT       0.417000        1.0080           0
     47970 WT3      8940     TIP3     H2       HT       0.417000        1.0080           0
     47971 WT3      8941     TIP3     OH2      OT      -0.834000       15.9994           0
     47972 WT3      8941     TIP3     H1       HT       0.417000        1.0080           0
     47973 WT3      8941     TIP3     H2       HT       0.417000        1.0080           0
     47974 WT3      8942     TIP3     OH2      OT      -0.834000       15.9994           0
     47975 WT3      8942     TIP3     H1       HT       0.417000        1.0080           0
     47976 WT3      8942     TIP3     H2       HT       0.417000        1.0080           0
     47977 WT3      8943     TIP3     OH2      OT      -0.834000       15.9994           0
     47978 WT3      8943     TIP3     H1       HT       0.417000        1.0080           0
     47979 WT3      8943     TIP3     H2       HT       0.417000        1.0080           0
     47980 WT3      8944     TIP3     OH2      OT      -0.834000       15.9994           0
     47981 WT3      8944     TIP3     H1       HT       0.417000        1.0080           0
     47982 WT3      8944     TIP3     H2       HT       0.417000        1.0080           0
     47983 WT3      8946     TIP3     OH2      OT      -0.834000       15.9994           0
     47984 WT3      8946     TIP3     H1       HT       0.417000        1.0080           0
     47985 WT3      8946     TIP3     H2       HT       0.417000        1.0080           0
     47986 WT3      8947     TIP3     OH2      OT      -0.834000       15.9994           0
     47987 WT3      8947     TIP3     H1       HT       0.417000        1.0080           0
     47988 WT3      8947     TIP3     H2       HT       0.417000        1.0080           0
     47989 WT3      8948     TIP3     OH2      OT      -0.834000       15.9994           0
     47990 WT3      8948     TIP3     H1       HT       0.417000        1.0080           0
     47991 WT3      8948     TIP3     H2       HT       0.417000        1.0080           0
     47992 WT3      8949     TIP3     OH2      OT      -0.834000       15.9994           0
     47993 WT3      8949     TIP3     H1       HT       0.417000        1.0080           0
     47994 WT3      8949     TIP3     H2       HT       0.417000        1.0080           0
     47995 WT3      8951     TIP3     OH2      OT      -0.834000       15.9994           0
     47996 WT3      8951     TIP3     H1       HT       0.417000        1.0080           0
     47997 WT3      8951     TIP3     H2       HT       0.417000        1.0080           0
     47998 WT3      8952     TIP3     OH2      OT      -0.834000       15.9994           0
     47999 WT3      8952     TIP3     H1       HT       0.417000        1.0080           0
     48000 WT3      8952     TIP3     H2       HT       0.417000        1.0080           0
     48001 WT3      8953     TIP3     OH2      OT      -0.834000       15.9994           0
     48002 WT3      8953     TIP3     H1       HT       0.417000        1.0080           0
     48003 WT3      8953     TIP3     H2       HT       0.417000        1.0080           0
     48004 WT3      8956     TIP3     OH2      OT      -0.834000       15.9994           0
     48005 WT3      8956     TIP3     H1       HT       0.417000        1.0080           0
     48006 WT3      8956     TIP3     H2       HT       0.417000        1.0080           0
     48007 WT3      8959     TIP3     OH2      OT      -0.834000       15.9994           0
     48008 WT3      8959     TIP3     H1       HT       0.417000        1.0080           0
     48009 WT3      8959     TIP3     H2       HT       0.417000        1.0080           0
     48010 WT3      8960     TIP3     OH2      OT      -0.834000       15.9994           0
     48011 WT3      8960     TIP3     H1       HT       0.417000        1.0080           0
     48012 WT3      8960     TIP3     H2       HT       0.417000        1.0080           0
     48013 WT3      8961     TIP3     OH2      OT      -0.834000       15.9994           0
     48014 WT3      8961     TIP3     H1       HT       0.417000        1.0080           0
     48015 WT3      8961     TIP3     H2       HT       0.417000        1.0080           0
     48016 WT3      8965     TIP3     OH2      OT      -0.834000       15.9994           0
     48017 WT3      8965     TIP3     H1       HT       0.417000        1.0080           0
     48018 WT3      8965     TIP3     H2       HT       0.417000        1.0080           0
     48019 WT3      8970     TIP3     OH2      OT      -0.834000       15.9994           0
     48020 WT3      8970     TIP3     H1       HT       0.417000        1.0080           0
     48021 WT3      8970     TIP3     H2       HT       0.417000        1.0080           0
     48022 WT3      8971     TIP3     OH2      OT      -0.834000       15.9994           0
     48023 WT3      8971     TIP3     H1       HT       0.417000        1.0080           0
     48024 WT3      8971     TIP3     H2       HT       0.417000        1.0080           0
     48025 WT3      8974     TIP3     OH2      OT      -0.834000       15.9994           0
     48026 WT3      8974     TIP3     H1       HT       0.417000        1.0080           0
     48027 WT3      8974     TIP3     H2       HT       0.417000        1.0080           0
     48028 WT3      8975     TIP3     OH2      OT      -0.834000       15.9994           0
     48029 WT3      8975     TIP3     H1       HT       0.417000        1.0080           0
     48030 WT3      8975     TIP3     H2       HT       0.417000        1.0080           0
     48031 WT3      8977     TIP3     OH2      OT      -0.834000       15.9994           0
     48032 WT3      8977     TIP3     H1       HT       0.417000        1.0080           0
     48033 WT3      8977     TIP3     H2       HT       0.417000        1.0080           0
     48034 WT3      8978     TIP3     OH2      OT      -0.834000       15.9994           0
     48035 WT3      8978     TIP3     H1       HT       0.417000        1.0080           0
     48036 WT3      8978     TIP3     H2       HT       0.417000        1.0080           0
     48037 WT3      8980     TIP3     OH2      OT      -0.834000       15.9994           0
     48038 WT3      8980     TIP3     H1       HT       0.417000        1.0080           0
     48039 WT3      8980     TIP3     H2       HT       0.417000        1.0080           0
     48040 WT3      8984     TIP3     OH2      OT      -0.834000       15.9994           0
     48041 WT3      8984     TIP3     H1       HT       0.417000        1.0080           0
     48042 WT3      8984     TIP3     H2       HT       0.417000        1.0080           0
     48043 WT3      8988     TIP3     OH2      OT      -0.834000       15.9994           0
     48044 WT3      8988     TIP3     H1       HT       0.417000        1.0080           0
     48045 WT3      8988     TIP3     H2       HT       0.417000        1.0080           0
     48046 WT3      8993     TIP3     OH2      OT      -0.834000       15.9994           0
     48047 WT3      8993     TIP3     H1       HT       0.417000        1.0080           0
     48048 WT3      8993     TIP3     H2       HT       0.417000        1.0080           0
     48049 WT3      8996     TIP3     OH2      OT      -0.834000       15.9994           0
     48050 WT3      8996     TIP3     H1       HT       0.417000        1.0080           0
     48051 WT3      8996     TIP3     H2       HT       0.417000        1.0080           0
     48052 WT3      8997     TIP3     OH2      OT      -0.834000       15.9994           0
     48053 WT3      8997     TIP3     H1       HT       0.417000        1.0080           0
     48054 WT3      8997     TIP3     H2       HT       0.417000        1.0080           0
     48055 WT3      8998     TIP3     OH2      OT      -0.834000       15.9994           0
     48056 WT3      8998     TIP3     H1       HT       0.417000        1.0080           0
     48057 WT3      8998     TIP3     H2       HT       0.417000        1.0080           0
     48058 WT3      9001     TIP3     OH2      OT      -0.834000       15.9994           0
     48059 WT3      9001     TIP3     H1       HT       0.417000        1.0080           0
     48060 WT3      9001     TIP3     H2       HT       0.417000        1.0080           0
     48061 WT3      9008     TIP3     OH2      OT      -0.834000       15.9994           0
     48062 WT3      9008     TIP3     H1       HT       0.417000        1.0080           0
     48063 WT3      9008     TIP3     H2       HT       0.417000        1.0080           0
     48064 WT3      9009     TIP3     OH2      OT      -0.834000       15.9994           0
     48065 WT3      9009     TIP3     H1       HT       0.417000        1.0080           0
     48066 WT3      9009     TIP3     H2       HT       0.417000        1.0080           0
     48067 WT3      9017     TIP3     OH2      OT      -0.834000       15.9994           0
     48068 WT3      9017     TIP3     H1       HT       0.417000        1.0080           0
     48069 WT3      9017     TIP3     H2       HT       0.417000        1.0080           0
     48070 WT3      9018     TIP3     OH2      OT      -0.834000       15.9994           0
     48071 WT3      9018     TIP3     H1       HT       0.417000        1.0080           0
     48072 WT3      9018     TIP3     H2       HT       0.417000        1.0080           0
     48073 WT3      9019     TIP3     OH2      OT      -0.834000       15.9994           0
     48074 WT3      9019     TIP3     H1       HT       0.417000        1.0080           0
     48075 WT3      9019     TIP3     H2       HT       0.417000        1.0080           0
     48076 WT3      9023     TIP3     OH2      OT      -0.834000       15.9994           0
     48077 WT3      9023     TIP3     H1       HT       0.417000        1.0080           0
     48078 WT3      9023     TIP3     H2       HT       0.417000        1.0080           0
     48079 WT3      9039     TIP3     OH2      OT      -0.834000       15.9994           0
     48080 WT3      9039     TIP3     H1       HT       0.417000        1.0080           0
     48081 WT3      9039     TIP3     H2       HT       0.417000        1.0080           0
     48082 WT3      9041     TIP3     OH2      OT      -0.834000       15.9994           0
     48083 WT3      9041     TIP3     H1       HT       0.417000        1.0080           0
     48084 WT3      9041     TIP3     H2       HT       0.417000        1.0080           0
     48085 WT3      9057     TIP3     OH2      OT      -0.834000       15.9994           0
     48086 WT3      9057     TIP3     H1       HT       0.417000        1.0080           0
     48087 WT3      9057     TIP3     H2       HT       0.417000        1.0080           0
     48088 WT3      9060     TIP3     OH2      OT      -0.834000       15.9994           0
     48089 WT3      9060     TIP3     H1       HT       0.417000        1.0080           0
     48090 WT3      9060     TIP3     H2       HT       0.417000        1.0080           0
     48091 WT3      9067     TIP3     OH2      OT      -0.834000       15.9994           0
     48092 WT3      9067     TIP3     H1       HT       0.417000        1.0080           0
     48093 WT3      9067     TIP3     H2       HT       0.417000        1.0080           0
     48094 WT3      9082     TIP3     OH2      OT      -0.834000       15.9994           0
     48095 WT3      9082     TIP3     H1       HT       0.417000        1.0080           0
     48096 WT3      9082     TIP3     H2       HT       0.417000        1.0080           0
     48097 WT3      9096     TIP3     OH2      OT      -0.834000       15.9994           0
     48098 WT3      9096     TIP3     H1       HT       0.417000        1.0080           0
     48099 WT3      9096     TIP3     H2       HT       0.417000        1.0080           0
     48100 WT3      9137     TIP3     OH2      OT      -0.834000       15.9994           0
     48101 WT3      9137     TIP3     H1       HT       0.417000        1.0080           0
     48102 WT3      9137     TIP3     H2       HT       0.417000        1.0080           0
     48103 WT3      9151     TIP3     OH2      OT      -0.834000       15.9994           0
     48104 WT3      9151     TIP3     H1       HT       0.417000        1.0080           0
     48105 WT3      9151     TIP3     H2       HT       0.417000        1.0080           0
     48106 WT3      9165     TIP3     OH2      OT      -0.834000       15.9994           0
     48107 WT3      9165     TIP3     H1       HT       0.417000        1.0080           0
     48108 WT3      9165     TIP3     H2       HT       0.417000        1.0080           0
     48109 WT3      9168     TIP3     OH2      OT      -0.834000       15.9994           0
     48110 WT3      9168     TIP3     H1       HT       0.417000        1.0080           0
     48111 WT3      9168     TIP3     H2       HT       0.417000        1.0080           0
     48112 WT3      9169     TIP3     OH2      OT      -0.834000       15.9994           0
     48113 WT3      9169     TIP3     H1       HT       0.417000        1.0080           0
     48114 WT3      9169     TIP3     H2       HT       0.417000        1.0080           0
     48115 WT3      9201     TIP3     OH2      OT      -0.834000       15.9994           0
     48116 WT3      9201     TIP3     H1       HT       0.417000        1.0080           0
     48117 WT3      9201     TIP3     H2       HT       0.417000        1.0080           0
     48118 WT3      9210     TIP3     OH2      OT      -0.834000       15.9994           0
     48119 WT3      9210     TIP3     H1       HT       0.417000        1.0080           0
     48120 WT3      9210     TIP3     H2       HT       0.417000        1.0080           0
     48121 WT3      9212     TIP3     OH2      OT      -0.834000       15.9994           0
     48122 WT3      9212     TIP3     H1       HT       0.417000        1.0080           0
     48123 WT3      9212     TIP3     H2       HT       0.417000        1.0080           0
     48124 WT3      9214     TIP3     OH2      OT      -0.834000       15.9994           0
     48125 WT3      9214     TIP3     H1       HT       0.417000        1.0080           0
     48126 WT3      9214     TIP3     H2       HT       0.417000        1.0080           0
     48127 WT3      9224     TIP3     OH2      OT      -0.834000       15.9994           0
     48128 WT3      9224     TIP3     H1       HT       0.417000        1.0080           0
     48129 WT3      9224     TIP3     H2       HT       0.417000        1.0080           0
     48130 WT3      9226     TIP3     OH2      OT      -0.834000       15.9994           0
     48131 WT3      9226     TIP3     H1       HT       0.417000        1.0080           0
     48132 WT3      9226     TIP3     H2       HT       0.417000        1.0080           0
     48133 WT3      9230     TIP3     OH2      OT      -0.834000       15.9994           0
     48134 WT3      9230     TIP3     H1       HT       0.417000        1.0080           0
     48135 WT3      9230     TIP3     H2       HT       0.417000        1.0080           0
     48136 WT3      9231     TIP3     OH2      OT      -0.834000       15.9994           0
     48137 WT3      9231     TIP3     H1       HT       0.417000        1.0080           0
     48138 WT3      9231     TIP3     H2       HT       0.417000        1.0080           0
     48139 WT3      9234     TIP3     OH2      OT      -0.834000       15.9994           0
     48140 WT3      9234     TIP3     H1       HT       0.417000        1.0080           0
     48141 WT3      9234     TIP3     H2       HT       0.417000        1.0080           0
     48142 WT3      9240     TIP3     OH2      OT      -0.834000       15.9994           0
     48143 WT3      9240     TIP3     H1       HT       0.417000        1.0080           0
     48144 WT3      9240     TIP3     H2       HT       0.417000        1.0080           0
     48145 WT3      9241     TIP3     OH2      OT      -0.834000       15.9994           0
     48146 WT3      9241     TIP3     H1       HT       0.417000        1.0080           0
     48147 WT3      9241     TIP3     H2       HT       0.417000        1.0080           0
     48148 WT3      9243     TIP3     OH2      OT      -0.834000       15.9994           0
     48149 WT3      9243     TIP3     H1       HT       0.417000        1.0080           0
     48150 WT3      9243     TIP3     H2       HT       0.417000        1.0080           0
     48151 WT3      9246     TIP3     OH2      OT      -0.834000       15.9994           0
     48152 WT3      9246     TIP3     H1       HT       0.417000        1.0080           0
     48153 WT3      9246     TIP3     H2       HT       0.417000        1.0080           0
     48154 WT3      9250     TIP3     OH2      OT      -0.834000       15.9994           0
     48155 WT3      9250     TIP3     H1       HT       0.417000        1.0080           0
     48156 WT3      9250     TIP3     H2       HT       0.417000        1.0080           0
     48157 WT3      9252     TIP3     OH2      OT      -0.834000       15.9994           0
     48158 WT3      9252     TIP3     H1       HT       0.417000        1.0080           0
     48159 WT3      9252     TIP3     H2       HT       0.417000        1.0080           0
     48160 WT3      9253     TIP3     OH2      OT      -0.834000       15.9994           0
     48161 WT3      9253     TIP3     H1       HT       0.417000        1.0080           0
     48162 WT3      9253     TIP3     H2       HT       0.417000        1.0080           0
     48163 WT3      9255     TIP3     OH2      OT      -0.834000       15.9994           0
     48164 WT3      9255     TIP3     H1       HT       0.417000        1.0080           0
     48165 WT3      9255     TIP3     H2       HT       0.417000        1.0080           0
     48166 WT3      9257     TIP3     OH2      OT      -0.834000       15.9994           0
     48167 WT3      9257     TIP3     H1       HT       0.417000        1.0080           0
     48168 WT3      9257     TIP3     H2       HT       0.417000        1.0080           0
     48169 WT3      9260     TIP3     OH2      OT      -0.834000       15.9994           0
     48170 WT3      9260     TIP3     H1       HT       0.417000        1.0080           0
     48171 WT3      9260     TIP3     H2       HT       0.417000        1.0080           0
     48172 WT3      9261     TIP3     OH2      OT      -0.834000       15.9994           0
     48173 WT3      9261     TIP3     H1       HT       0.417000        1.0080           0
     48174 WT3      9261     TIP3     H2       HT       0.417000        1.0080           0
     48175 WT4      4        TIP3     OH2      OT      -0.834000       15.9994           0
     48176 WT4      4        TIP3     H1       HT       0.417000        1.0080           0
     48177 WT4      4        TIP3     H2       HT       0.417000        1.0080           0
     48178 WT4      5        TIP3     OH2      OT      -0.834000       15.9994           0
     48179 WT4      5        TIP3     H1       HT       0.417000        1.0080           0
     48180 WT4      5        TIP3     H2       HT       0.417000        1.0080           0
     48181 WT4      7        TIP3     OH2      OT      -0.834000       15.9994           0
     48182 WT4      7        TIP3     H1       HT       0.417000        1.0080           0
     48183 WT4      7        TIP3     H2       HT       0.417000        1.0080           0
     48184 WT4      11       TIP3     OH2      OT      -0.834000       15.9994           0
     48185 WT4      11       TIP3     H1       HT       0.417000        1.0080           0
     48186 WT4      11       TIP3     H2       HT       0.417000        1.0080           0
     48187 WT4      21       TIP3     OH2      OT      -0.834000       15.9994           0
     48188 WT4      21       TIP3     H1       HT       0.417000        1.0080           0
     48189 WT4      21       TIP3     H2       HT       0.417000        1.0080           0
     48190 WT4      22       TIP3     OH2      OT      -0.834000       15.9994           0
     48191 WT4      22       TIP3     H1       HT       0.417000        1.0080           0
     48192 WT4      22       TIP3     H2       HT       0.417000        1.0080           0
     48193 WT4      23       TIP3     OH2      OT      -0.834000       15.9994           0
     48194 WT4      23       TIP3     H1       HT       0.417000        1.0080           0
     48195 WT4      23       TIP3     H2       HT       0.417000        1.0080           0
     48196 WT4      24       TIP3     OH2      OT      -0.834000       15.9994           0
     48197 WT4      24       TIP3     H1       HT       0.417000        1.0080           0
     48198 WT4      24       TIP3     H2       HT       0.417000        1.0080           0
     48199 WT4      25       TIP3     OH2      OT      -0.834000       15.9994           0
     48200 WT4      25       TIP3     H1       HT       0.417000        1.0080           0
     48201 WT4      25       TIP3     H2       HT       0.417000        1.0080           0
     48202 WT4      27       TIP3     OH2      OT      -0.834000       15.9994           0
     48203 WT4      27       TIP3     H1       HT       0.417000        1.0080           0
     48204 WT4      27       TIP3     H2       HT       0.417000        1.0080           0
     48205 WT4      29       TIP3     OH2      OT      -0.834000       15.9994           0
     48206 WT4      29       TIP3     H1       HT       0.417000        1.0080           0
     48207 WT4      29       TIP3     H2       HT       0.417000        1.0080           0
     48208 WT4      31       TIP3     OH2      OT      -0.834000       15.9994           0
     48209 WT4      31       TIP3     H1       HT       0.417000        1.0080           0
     48210 WT4      31       TIP3     H2       HT       0.417000        1.0080           0
     48211 WT4      43       TIP3     OH2      OT      -0.834000       15.9994           0
     48212 WT4      43       TIP3     H1       HT       0.417000        1.0080           0
     48213 WT4      43       TIP3     H2       HT       0.417000        1.0080           0
     48214 WT4      44       TIP3     OH2      OT      -0.834000       15.9994           0
     48215 WT4      44       TIP3     H1       HT       0.417000        1.0080           0
     48216 WT4      44       TIP3     H2       HT       0.417000        1.0080           0
     48217 WT4      45       TIP3     OH2      OT      -0.834000       15.9994           0
     48218 WT4      45       TIP3     H1       HT       0.417000        1.0080           0
     48219 WT4      45       TIP3     H2       HT       0.417000        1.0080           0
     48220 WT4      46       TIP3     OH2      OT      -0.834000       15.9994           0
     48221 WT4      46       TIP3     H1       HT       0.417000        1.0080           0
     48222 WT4      46       TIP3     H2       HT       0.417000        1.0080           0
     48223 WT4      47       TIP3     OH2      OT      -0.834000       15.9994           0
     48224 WT4      47       TIP3     H1       HT       0.417000        1.0080           0
     48225 WT4      47       TIP3     H2       HT       0.417000        1.0080           0
     48226 WT4      48       TIP3     OH2      OT      -0.834000       15.9994           0
     48227 WT4      48       TIP3     H1       HT       0.417000        1.0080           0
     48228 WT4      48       TIP3     H2       HT       0.417000        1.0080           0
     48229 WT4      50       TIP3     OH2      OT      -0.834000       15.9994           0
     48230 WT4      50       TIP3     H1       HT       0.417000        1.0080           0
     48231 WT4      50       TIP3     H2       HT       0.417000        1.0080           0
     48232 WT4      52       TIP3     OH2      OT      -0.834000       15.9994           0
     48233 WT4      52       TIP3     H1       HT       0.417000        1.0080           0
     48234 WT4      52       TIP3     H2       HT       0.417000        1.0080           0
     48235 WT4      64       TIP3     OH2      OT      -0.834000       15.9994           0
     48236 WT4      64       TIP3     H1       HT       0.417000        1.0080           0
     48237 WT4      64       TIP3     H2       HT       0.417000        1.0080           0
     48238 WT4      66       TIP3     OH2      OT      -0.834000       15.9994           0
     48239 WT4      66       TIP3     H1       HT       0.417000        1.0080           0
     48240 WT4      66       TIP3     H2       HT       0.417000        1.0080           0
     48241 WT4      67       TIP3     OH2      OT      -0.834000       15.9994           0
     48242 WT4      67       TIP3     H1       HT       0.417000        1.0080           0
     48243 WT4      67       TIP3     H2       HT       0.417000        1.0080           0
     48244 WT4      68       TIP3     OH2      OT      -0.834000       15.9994           0
     48245 WT4      68       TIP3     H1       HT       0.417000        1.0080           0
     48246 WT4      68       TIP3     H2       HT       0.417000        1.0080           0
     48247 WT4      69       TIP3     OH2      OT      -0.834000       15.9994           0
     48248 WT4      69       TIP3     H1       HT       0.417000        1.0080           0
     48249 WT4      69       TIP3     H2       HT       0.417000        1.0080           0
     48250 WT4      70       TIP3     OH2      OT      -0.834000       15.9994           0
     48251 WT4      70       TIP3     H1       HT       0.417000        1.0080           0
     48252 WT4      70       TIP3     H2       HT       0.417000        1.0080           0
     48253 WT4      72       TIP3     OH2      OT      -0.834000       15.9994           0
     48254 WT4      72       TIP3     H1       HT       0.417000        1.0080           0
     48255 WT4      72       TIP3     H2       HT       0.417000        1.0080           0
     48256 WT4      74       TIP3     OH2      OT      -0.834000       15.9994           0
     48257 WT4      74       TIP3     H1       HT       0.417000        1.0080           0
     48258 WT4      74       TIP3     H2       HT       0.417000        1.0080           0
     48259 WT4      87       TIP3     OH2      OT      -0.834000       15.9994           0
     48260 WT4      87       TIP3     H1       HT       0.417000        1.0080           0
     48261 WT4      87       TIP3     H2       HT       0.417000        1.0080           0
     48262 WT4      88       TIP3     OH2      OT      -0.834000       15.9994           0
     48263 WT4      88       TIP3     H1       HT       0.417000        1.0080           0
     48264 WT4      88       TIP3     H2       HT       0.417000        1.0080           0
     48265 WT4      90       TIP3     OH2      OT      -0.834000       15.9994           0
     48266 WT4      90       TIP3     H1       HT       0.417000        1.0080           0
     48267 WT4      90       TIP3     H2       HT       0.417000        1.0080           0
     48268 WT4      91       TIP3     OH2      OT      -0.834000       15.9994           0
     48269 WT4      91       TIP3     H1       HT       0.417000        1.0080           0
     48270 WT4      91       TIP3     H2       HT       0.417000        1.0080           0
     48271 WT4      93       TIP3     OH2      OT      -0.834000       15.9994           0
     48272 WT4      93       TIP3     H1       HT       0.417000        1.0080           0
     48273 WT4      93       TIP3     H2       HT       0.417000        1.0080           0
     48274 WT4      94       TIP3     OH2      OT      -0.834000       15.9994           0
     48275 WT4      94       TIP3     H1       HT       0.417000        1.0080           0
     48276 WT4      94       TIP3     H2       HT       0.417000        1.0080           0
     48277 WT4      95       TIP3     OH2      OT      -0.834000       15.9994           0
     48278 WT4      95       TIP3     H1       HT       0.417000        1.0080           0
     48279 WT4      95       TIP3     H2       HT       0.417000        1.0080           0
     48280 WT4      107      TIP3     OH2      OT      -0.834000       15.9994           0
     48281 WT4      107      TIP3     H1       HT       0.417000        1.0080           0
     48282 WT4      107      TIP3     H2       HT       0.417000        1.0080           0
     48283 WT4      108      TIP3     OH2      OT      -0.834000       15.9994           0
     48284 WT4      108      TIP3     H1       HT       0.417000        1.0080           0
     48285 WT4      108      TIP3     H2       HT       0.417000        1.0080           0
     48286 WT4      109      TIP3     OH2      OT      -0.834000       15.9994           0
     48287 WT4      109      TIP3     H1       HT       0.417000        1.0080           0
     48288 WT4      109      TIP3     H2       HT       0.417000        1.0080           0
     48289 WT4      110      TIP3     OH2      OT      -0.834000       15.9994           0
     48290 WT4      110      TIP3     H1       HT       0.417000        1.0080           0
     48291 WT4      110      TIP3     H2       HT       0.417000        1.0080           0
     48292 WT4      111      TIP3     OH2      OT      -0.834000       15.9994           0
     48293 WT4      111      TIP3     H1       HT       0.417000        1.0080           0
     48294 WT4      111      TIP3     H2       HT       0.417000        1.0080           0
     48295 WT4      113      TIP3     OH2      OT      -0.834000       15.9994           0
     48296 WT4      113      TIP3     H1       HT       0.417000        1.0080           0
     48297 WT4      113      TIP3     H2       HT       0.417000        1.0080           0
     48298 WT4      114      TIP3     OH2      OT      -0.834000       15.9994           0
     48299 WT4      114      TIP3     H1       HT       0.417000        1.0080           0
     48300 WT4      114      TIP3     H2       HT       0.417000        1.0080           0
     48301 WT4      115      TIP3     OH2      OT      -0.834000       15.9994           0
     48302 WT4      115      TIP3     H1       HT       0.417000        1.0080           0
     48303 WT4      115      TIP3     H2       HT       0.417000        1.0080           0
     48304 WT4      125      TIP3     OH2      OT      -0.834000       15.9994           0
     48305 WT4      125      TIP3     H1       HT       0.417000        1.0080           0
     48306 WT4      125      TIP3     H2       HT       0.417000        1.0080           0
     48307 WT4      130      TIP3     OH2      OT      -0.834000       15.9994           0
     48308 WT4      130      TIP3     H1       HT       0.417000        1.0080           0
     48309 WT4      130      TIP3     H2       HT       0.417000        1.0080           0
     48310 WT4      133      TIP3     OH2      OT      -0.834000       15.9994           0
     48311 WT4      133      TIP3     H1       HT       0.417000        1.0080           0
     48312 WT4      133      TIP3     H2       HT       0.417000        1.0080           0
     48313 WT4      134      TIP3     OH2      OT      -0.834000       15.9994           0
     48314 WT4      134      TIP3     H1       HT       0.417000        1.0080           0
     48315 WT4      134      TIP3     H2       HT       0.417000        1.0080           0
     48316 WT4      144      TIP3     OH2      OT      -0.834000       15.9994           0
     48317 WT4      144      TIP3     H1       HT       0.417000        1.0080           0
     48318 WT4      144      TIP3     H2       HT       0.417000        1.0080           0
     48319 WT4      150      TIP3     OH2      OT      -0.834000       15.9994           0
     48320 WT4      150      TIP3     H1       HT       0.417000        1.0080           0
     48321 WT4      150      TIP3     H2       HT       0.417000        1.0080           0
     48322 WT4      151      TIP3     OH2      OT      -0.834000       15.9994           0
     48323 WT4      151      TIP3     H1       HT       0.417000        1.0080           0
     48324 WT4      151      TIP3     H2       HT       0.417000        1.0080           0
     48325 WT4      152      TIP3     OH2      OT      -0.834000       15.9994           0
     48326 WT4      152      TIP3     H1       HT       0.417000        1.0080           0
     48327 WT4      152      TIP3     H2       HT       0.417000        1.0080           0
     48328 WT4      153      TIP3     OH2      OT      -0.834000       15.9994           0
     48329 WT4      153      TIP3     H1       HT       0.417000        1.0080           0
     48330 WT4      153      TIP3     H2       HT       0.417000        1.0080           0
     48331 WT4      154      TIP3     OH2      OT      -0.834000       15.9994           0
     48332 WT4      154      TIP3     H1       HT       0.417000        1.0080           0
     48333 WT4      154      TIP3     H2       HT       0.417000        1.0080           0
     48334 WT4      167      TIP3     OH2      OT      -0.834000       15.9994           0
     48335 WT4      167      TIP3     H1       HT       0.417000        1.0080           0
     48336 WT4      167      TIP3     H2       HT       0.417000        1.0080           0
     48337 WT4      236      TIP3     OH2      OT      -0.834000       15.9994           0
     48338 WT4      236      TIP3     H1       HT       0.417000        1.0080           0
     48339 WT4      236      TIP3     H2       HT       0.417000        1.0080           0
     48340 WT4      239      TIP3     OH2      OT      -0.834000       15.9994           0
     48341 WT4      239      TIP3     H1       HT       0.417000        1.0080           0
     48342 WT4      239      TIP3     H2       HT       0.417000        1.0080           0
     48343 WT4      407      TIP3     OH2      OT      -0.834000       15.9994           0
     48344 WT4      407      TIP3     H1       HT       0.417000        1.0080           0
     48345 WT4      407      TIP3     H2       HT       0.417000        1.0080           0
     48346 WT4      408      TIP3     OH2      OT      -0.834000       15.9994           0
     48347 WT4      408      TIP3     H1       HT       0.417000        1.0080           0
     48348 WT4      408      TIP3     H2       HT       0.417000        1.0080           0
     48349 WT4      412      TIP3     OH2      OT      -0.834000       15.9994           0
     48350 WT4      412      TIP3     H1       HT       0.417000        1.0080           0
     48351 WT4      412      TIP3     H2       HT       0.417000        1.0080           0
     48352 WT4      424      TIP3     OH2      OT      -0.834000       15.9994           0
     48353 WT4      424      TIP3     H1       HT       0.417000        1.0080           0
     48354 WT4      424      TIP3     H2       HT       0.417000        1.0080           0
     48355 WT4      430      TIP3     OH2      OT      -0.834000       15.9994           0
     48356 WT4      430      TIP3     H1       HT       0.417000        1.0080           0
     48357 WT4      430      TIP3     H2       HT       0.417000        1.0080           0
     48358 WT4      443      TIP3     OH2      OT      -0.834000       15.9994           0
     48359 WT4      443      TIP3     H1       HT       0.417000        1.0080           0
     48360 WT4      443      TIP3     H2       HT       0.417000        1.0080           0
     48361 WT4      444      TIP3     OH2      OT      -0.834000       15.9994           0
     48362 WT4      444      TIP3     H1       HT       0.417000        1.0080           0
     48363 WT4      444      TIP3     H2       HT       0.417000        1.0080           0
     48364 WT4      447      TIP3     OH2      OT      -0.834000       15.9994           0
     48365 WT4      447      TIP3     H1       HT       0.417000        1.0080           0
     48366 WT4      447      TIP3     H2       HT       0.417000        1.0080           0
     48367 WT4      449      TIP3     OH2      OT      -0.834000       15.9994           0
     48368 WT4      449      TIP3     H1       HT       0.417000        1.0080           0
     48369 WT4      449      TIP3     H2       HT       0.417000        1.0080           0
     48370 WT4      450      TIP3     OH2      OT      -0.834000       15.9994           0
     48371 WT4      450      TIP3     H1       HT       0.417000        1.0080           0
     48372 WT4      450      TIP3     H2       HT       0.417000        1.0080           0
     48373 WT4      465      TIP3     OH2      OT      -0.834000       15.9994           0
     48374 WT4      465      TIP3     H1       HT       0.417000        1.0080           0
     48375 WT4      465      TIP3     H2       HT       0.417000        1.0080           0
     48376 WT4      466      TIP3     OH2      OT      -0.834000       15.9994           0
     48377 WT4      466      TIP3     H1       HT       0.417000        1.0080           0
     48378 WT4      466      TIP3     H2       HT       0.417000        1.0080           0
     48379 WT4      467      TIP3     OH2      OT      -0.834000       15.9994           0
     48380 WT4      467      TIP3     H1       HT       0.417000        1.0080           0
     48381 WT4      467      TIP3     H2       HT       0.417000        1.0080           0
     48382 WT4      469      TIP3     OH2      OT      -0.834000       15.9994           0
     48383 WT4      469      TIP3     H1       HT       0.417000        1.0080           0
     48384 WT4      469      TIP3     H2       HT       0.417000        1.0080           0
     48385 WT4      478      TIP3     OH2      OT      -0.834000       15.9994           0
     48386 WT4      478      TIP3     H1       HT       0.417000        1.0080           0
     48387 WT4      478      TIP3     H2       HT       0.417000        1.0080           0
     48388 WT4      484      TIP3     OH2      OT      -0.834000       15.9994           0
     48389 WT4      484      TIP3     H1       HT       0.417000        1.0080           0
     48390 WT4      484      TIP3     H2       HT       0.417000        1.0080           0
     48391 WT4      485      TIP3     OH2      OT      -0.834000       15.9994           0
     48392 WT4      485      TIP3     H1       HT       0.417000        1.0080           0
     48393 WT4      485      TIP3     H2       HT       0.417000        1.0080           0
     48394 WT4      486      TIP3     OH2      OT      -0.834000       15.9994           0
     48395 WT4      486      TIP3     H1       HT       0.417000        1.0080           0
     48396 WT4      486      TIP3     H2       HT       0.417000        1.0080           0
     48397 WT4      488      TIP3     OH2      OT      -0.834000       15.9994           0
     48398 WT4      488      TIP3     H1       HT       0.417000        1.0080           0
     48399 WT4      488      TIP3     H2       HT       0.417000        1.0080           0
     48400 WT4      489      TIP3     OH2      OT      -0.834000       15.9994           0
     48401 WT4      489      TIP3     H1       HT       0.417000        1.0080           0
     48402 WT4      489      TIP3     H2       HT       0.417000        1.0080           0
     48403 WT4      492      TIP3     OH2      OT      -0.834000       15.9994           0
     48404 WT4      492      TIP3     H1       HT       0.417000        1.0080           0
     48405 WT4      492      TIP3     H2       HT       0.417000        1.0080           0
     48406 WT4      503      TIP3     OH2      OT      -0.834000       15.9994           0
     48407 WT4      503      TIP3     H1       HT       0.417000        1.0080           0
     48408 WT4      503      TIP3     H2       HT       0.417000        1.0080           0
     48409 WT4      506      TIP3     OH2      OT      -0.834000       15.9994           0
     48410 WT4      506      TIP3     H1       HT       0.417000        1.0080           0
     48411 WT4      506      TIP3     H2       HT       0.417000        1.0080           0
     48412 WT4      507      TIP3     OH2      OT      -0.834000       15.9994           0
     48413 WT4      507      TIP3     H1       HT       0.417000        1.0080           0
     48414 WT4      507      TIP3     H2       HT       0.417000        1.0080           0
     48415 WT4      508      TIP3     OH2      OT      -0.834000       15.9994           0
     48416 WT4      508      TIP3     H1       HT       0.417000        1.0080           0
     48417 WT4      508      TIP3     H2       HT       0.417000        1.0080           0
     48418 WT4      509      TIP3     OH2      OT      -0.834000       15.9994           0
     48419 WT4      509      TIP3     H1       HT       0.417000        1.0080           0
     48420 WT4      509      TIP3     H2       HT       0.417000        1.0080           0
     48421 WT4      511      TIP3     OH2      OT      -0.834000       15.9994           0
     48422 WT4      511      TIP3     H1       HT       0.417000        1.0080           0
     48423 WT4      511      TIP3     H2       HT       0.417000        1.0080           0
     48424 WT4      512      TIP3     OH2      OT      -0.834000       15.9994           0
     48425 WT4      512      TIP3     H1       HT       0.417000        1.0080           0
     48426 WT4      512      TIP3     H2       HT       0.417000        1.0080           0
     48427 WT4      517      TIP3     OH2      OT      -0.834000       15.9994           0
     48428 WT4      517      TIP3     H1       HT       0.417000        1.0080           0
     48429 WT4      517      TIP3     H2       HT       0.417000        1.0080           0
     48430 WT4      528      TIP3     OH2      OT      -0.834000       15.9994           0
     48431 WT4      528      TIP3     H1       HT       0.417000        1.0080           0
     48432 WT4      528      TIP3     H2       HT       0.417000        1.0080           0
     48433 WT4      530      TIP3     OH2      OT      -0.834000       15.9994           0
     48434 WT4      530      TIP3     H1       HT       0.417000        1.0080           0
     48435 WT4      530      TIP3     H2       HT       0.417000        1.0080           0
     48436 WT4      532      TIP3     OH2      OT      -0.834000       15.9994           0
     48437 WT4      532      TIP3     H1       HT       0.417000        1.0080           0
     48438 WT4      532      TIP3     H2       HT       0.417000        1.0080           0
     48439 WT4      533      TIP3     OH2      OT      -0.834000       15.9994           0
     48440 WT4      533      TIP3     H1       HT       0.417000        1.0080           0
     48441 WT4      533      TIP3     H2       HT       0.417000        1.0080           0
     48442 WT4      534      TIP3     OH2      OT      -0.834000       15.9994           0
     48443 WT4      534      TIP3     H1       HT       0.417000        1.0080           0
     48444 WT4      534      TIP3     H2       HT       0.417000        1.0080           0
     48445 WT4      535      TIP3     OH2      OT      -0.834000       15.9994           0
     48446 WT4      535      TIP3     H1       HT       0.417000        1.0080           0
     48447 WT4      535      TIP3     H2       HT       0.417000        1.0080           0
     48448 WT4      543      TIP3     OH2      OT      -0.834000       15.9994           0
     48449 WT4      543      TIP3     H1       HT       0.417000        1.0080           0
     48450 WT4      543      TIP3     H2       HT       0.417000        1.0080           0
     48451 WT4      549      TIP3     OH2      OT      -0.834000       15.9994           0
     48452 WT4      549      TIP3     H1       HT       0.417000        1.0080           0
     48453 WT4      549      TIP3     H2       HT       0.417000        1.0080           0
     48454 WT4      550      TIP3     OH2      OT      -0.834000       15.9994           0
     48455 WT4      550      TIP3     H1       HT       0.417000        1.0080           0
     48456 WT4      550      TIP3     H2       HT       0.417000        1.0080           0
     48457 WT4      554      TIP3     OH2      OT      -0.834000       15.9994           0
     48458 WT4      554      TIP3     H1       HT       0.417000        1.0080           0
     48459 WT4      554      TIP3     H2       HT       0.417000        1.0080           0
     48460 WT4      558      TIP3     OH2      OT      -0.834000       15.9994           0
     48461 WT4      558      TIP3     H1       HT       0.417000        1.0080           0
     48462 WT4      558      TIP3     H2       HT       0.417000        1.0080           0
     48463 WT4      562      TIP3     OH2      OT      -0.834000       15.9994           0
     48464 WT4      562      TIP3     H1       HT       0.417000        1.0080           0
     48465 WT4      562      TIP3     H2       HT       0.417000        1.0080           0
     48466 WT4      568      TIP3     OH2      OT      -0.834000       15.9994           0
     48467 WT4      568      TIP3     H1       HT       0.417000        1.0080           0
     48468 WT4      568      TIP3     H2       HT       0.417000        1.0080           0
     48469 WT4      574      TIP3     OH2      OT      -0.834000       15.9994           0
     48470 WT4      574      TIP3     H1       HT       0.417000        1.0080           0
     48471 WT4      574      TIP3     H2       HT       0.417000        1.0080           0
     48472 WT4      575      TIP3     OH2      OT      -0.834000       15.9994           0
     48473 WT4      575      TIP3     H1       HT       0.417000        1.0080           0
     48474 WT4      575      TIP3     H2       HT       0.417000        1.0080           0
     48475 WT4      584      TIP3     OH2      OT      -0.834000       15.9994           0
     48476 WT4      584      TIP3     H1       HT       0.417000        1.0080           0
     48477 WT4      584      TIP3     H2       HT       0.417000        1.0080           0
     48478 WT4      594      TIP3     OH2      OT      -0.834000       15.9994           0
     48479 WT4      594      TIP3     H1       HT       0.417000        1.0080           0
     48480 WT4      594      TIP3     H2       HT       0.417000        1.0080           0
     48481 WT4      595      TIP3     OH2      OT      -0.834000       15.9994           0
     48482 WT4      595      TIP3     H1       HT       0.417000        1.0080           0
     48483 WT4      595      TIP3     H2       HT       0.417000        1.0080           0
     48484 WT4      597      TIP3     OH2      OT      -0.834000       15.9994           0
     48485 WT4      597      TIP3     H1       HT       0.417000        1.0080           0
     48486 WT4      597      TIP3     H2       HT       0.417000        1.0080           0
     48487 WT4      612      TIP3     OH2      OT      -0.834000       15.9994           0
     48488 WT4      612      TIP3     H1       HT       0.417000        1.0080           0
     48489 WT4      612      TIP3     H2       HT       0.417000        1.0080           0
     48490 WT4      613      TIP3     OH2      OT      -0.834000       15.9994           0
     48491 WT4      613      TIP3     H1       HT       0.417000        1.0080           0
     48492 WT4      613      TIP3     H2       HT       0.417000        1.0080           0
     48493 WT4      617      TIP3     OH2      OT      -0.834000       15.9994           0
     48494 WT4      617      TIP3     H1       HT       0.417000        1.0080           0
     48495 WT4      617      TIP3     H2       HT       0.417000        1.0080           0
     48496 WT4      621      TIP3     OH2      OT      -0.834000       15.9994           0
     48497 WT4      621      TIP3     H1       HT       0.417000        1.0080           0
     48498 WT4      621      TIP3     H2       HT       0.417000        1.0080           0
     48499 WT4      632      TIP3     OH2      OT      -0.834000       15.9994           0
     48500 WT4      632      TIP3     H1       HT       0.417000        1.0080           0
     48501 WT4      632      TIP3     H2       HT       0.417000        1.0080           0
     48502 WT4      634      TIP3     OH2      OT      -0.834000       15.9994           0
     48503 WT4      634      TIP3     H1       HT       0.417000        1.0080           0
     48504 WT4      634      TIP3     H2       HT       0.417000        1.0080           0
     48505 WT4      640      TIP3     OH2      OT      -0.834000       15.9994           0
     48506 WT4      640      TIP3     H1       HT       0.417000        1.0080           0
     48507 WT4      640      TIP3     H2       HT       0.417000        1.0080           0
     48508 WT4      659      TIP3     OH2      OT      -0.834000       15.9994           0
     48509 WT4      659      TIP3     H1       HT       0.417000        1.0080           0
     48510 WT4      659      TIP3     H2       HT       0.417000        1.0080           0
     48511 WT4      758      TIP3     OH2      OT      -0.834000       15.9994           0
     48512 WT4      758      TIP3     H1       HT       0.417000        1.0080           0
     48513 WT4      758      TIP3     H2       HT       0.417000        1.0080           0
     48514 WT4      805      TIP3     OH2      OT      -0.834000       15.9994           0
     48515 WT4      805      TIP3     H1       HT       0.417000        1.0080           0
     48516 WT4      805      TIP3     H2       HT       0.417000        1.0080           0
     48517 WT4      822      TIP3     OH2      OT      -0.834000       15.9994           0
     48518 WT4      822      TIP3     H1       HT       0.417000        1.0080           0
     48519 WT4      822      TIP3     H2       HT       0.417000        1.0080           0
     48520 WT4      825      TIP3     OH2      OT      -0.834000       15.9994           0
     48521 WT4      825      TIP3     H1       HT       0.417000        1.0080           0
     48522 WT4      825      TIP3     H2       HT       0.417000        1.0080           0
     48523 WT4      848      TIP3     OH2      OT      -0.834000       15.9994           0
     48524 WT4      848      TIP3     H1       HT       0.417000        1.0080           0
     48525 WT4      848      TIP3     H2       HT       0.417000        1.0080           0
     48526 WT4      849      TIP3     OH2      OT      -0.834000       15.9994           0
     48527 WT4      849      TIP3     H1       HT       0.417000        1.0080           0
     48528 WT4      849      TIP3     H2       HT       0.417000        1.0080           0
     48529 WT4      866      TIP3     OH2      OT      -0.834000       15.9994           0
     48530 WT4      866      TIP3     H1       HT       0.417000        1.0080           0
     48531 WT4      866      TIP3     H2       HT       0.417000        1.0080           0
     48532 WT4      867      TIP3     OH2      OT      -0.834000       15.9994           0
     48533 WT4      867      TIP3     H1       HT       0.417000        1.0080           0
     48534 WT4      867      TIP3     H2       HT       0.417000        1.0080           0
     48535 WT4      887      TIP3     OH2      OT      -0.834000       15.9994           0
     48536 WT4      887      TIP3     H1       HT       0.417000        1.0080           0
     48537 WT4      887      TIP3     H2       HT       0.417000        1.0080           0
     48538 WT4      888      TIP3     OH2      OT      -0.834000       15.9994           0
     48539 WT4      888      TIP3     H1       HT       0.417000        1.0080           0
     48540 WT4      888      TIP3     H2       HT       0.417000        1.0080           0
     48541 WT4      891      TIP3     OH2      OT      -0.834000       15.9994           0
     48542 WT4      891      TIP3     H1       HT       0.417000        1.0080           0
     48543 WT4      891      TIP3     H2       HT       0.417000        1.0080           0
     48544 WT4      906      TIP3     OH2      OT      -0.834000       15.9994           0
     48545 WT4      906      TIP3     H1       HT       0.417000        1.0080           0
     48546 WT4      906      TIP3     H2       HT       0.417000        1.0080           0
     48547 WT4      907      TIP3     OH2      OT      -0.834000       15.9994           0
     48548 WT4      907      TIP3     H1       HT       0.417000        1.0080           0
     48549 WT4      907      TIP3     H2       HT       0.417000        1.0080           0
     48550 WT4      908      TIP3     OH2      OT      -0.834000       15.9994           0
     48551 WT4      908      TIP3     H1       HT       0.417000        1.0080           0
     48552 WT4      908      TIP3     H2       HT       0.417000        1.0080           0
     48553 WT4      912      TIP3     OH2      OT      -0.834000       15.9994           0
     48554 WT4      912      TIP3     H1       HT       0.417000        1.0080           0
     48555 WT4      912      TIP3     H2       HT       0.417000        1.0080           0
     48556 WT4      924      TIP3     OH2      OT      -0.834000       15.9994           0
     48557 WT4      924      TIP3     H1       HT       0.417000        1.0080           0
     48558 WT4      924      TIP3     H2       HT       0.417000        1.0080           0
     48559 WT4      927      TIP3     OH2      OT      -0.834000       15.9994           0
     48560 WT4      927      TIP3     H1       HT       0.417000        1.0080           0
     48561 WT4      927      TIP3     H2       HT       0.417000        1.0080           0
     48562 WT4      928      TIP3     OH2      OT      -0.834000       15.9994           0
     48563 WT4      928      TIP3     H1       HT       0.417000        1.0080           0
     48564 WT4      928      TIP3     H2       HT       0.417000        1.0080           0
     48565 WT4      929      TIP3     OH2      OT      -0.834000       15.9994           0
     48566 WT4      929      TIP3     H1       HT       0.417000        1.0080           0
     48567 WT4      929      TIP3     H2       HT       0.417000        1.0080           0
     48568 WT4      930      TIP3     OH2      OT      -0.834000       15.9994           0
     48569 WT4      930      TIP3     H1       HT       0.417000        1.0080           0
     48570 WT4      930      TIP3     H2       HT       0.417000        1.0080           0
     48571 WT4      932      TIP3     OH2      OT      -0.834000       15.9994           0
     48572 WT4      932      TIP3     H1       HT       0.417000        1.0080           0
     48573 WT4      932      TIP3     H2       HT       0.417000        1.0080           0
     48574 WT4      933      TIP3     OH2      OT      -0.834000       15.9994           0
     48575 WT4      933      TIP3     H1       HT       0.417000        1.0080           0
     48576 WT4      933      TIP3     H2       HT       0.417000        1.0080           0
     48577 WT4      942      TIP3     OH2      OT      -0.834000       15.9994           0
     48578 WT4      942      TIP3     H1       HT       0.417000        1.0080           0
     48579 WT4      942      TIP3     H2       HT       0.417000        1.0080           0
     48580 WT4      947      TIP3     OH2      OT      -0.834000       15.9994           0
     48581 WT4      947      TIP3     H1       HT       0.417000        1.0080           0
     48582 WT4      947      TIP3     H2       HT       0.417000        1.0080           0
     48583 WT4      948      TIP3     OH2      OT      -0.834000       15.9994           0
     48584 WT4      948      TIP3     H1       HT       0.417000        1.0080           0
     48585 WT4      948      TIP3     H2       HT       0.417000        1.0080           0
     48586 WT4      950      TIP3     OH2      OT      -0.834000       15.9994           0
     48587 WT4      950      TIP3     H1       HT       0.417000        1.0080           0
     48588 WT4      950      TIP3     H2       HT       0.417000        1.0080           0
     48589 WT4      951      TIP3     OH2      OT      -0.834000       15.9994           0
     48590 WT4      951      TIP3     H1       HT       0.417000        1.0080           0
     48591 WT4      951      TIP3     H2       HT       0.417000        1.0080           0
     48592 WT4      952      TIP3     OH2      OT      -0.834000       15.9994           0
     48593 WT4      952      TIP3     H1       HT       0.417000        1.0080           0
     48594 WT4      952      TIP3     H2       HT       0.417000        1.0080           0
     48595 WT4      953      TIP3     OH2      OT      -0.834000       15.9994           0
     48596 WT4      953      TIP3     H1       HT       0.417000        1.0080           0
     48597 WT4      953      TIP3     H2       HT       0.417000        1.0080           0
     48598 WT4      956      TIP3     OH2      OT      -0.834000       15.9994           0
     48599 WT4      956      TIP3     H1       HT       0.417000        1.0080           0
     48600 WT4      956      TIP3     H2       HT       0.417000        1.0080           0
     48601 WT4      964      TIP3     OH2      OT      -0.834000       15.9994           0
     48602 WT4      964      TIP3     H1       HT       0.417000        1.0080           0
     48603 WT4      964      TIP3     H2       HT       0.417000        1.0080           0
     48604 WT4      972      TIP3     OH2      OT      -0.834000       15.9994           0
     48605 WT4      972      TIP3     H1       HT       0.417000        1.0080           0
     48606 WT4      972      TIP3     H2       HT       0.417000        1.0080           0
     48607 WT4      973      TIP3     OH2      OT      -0.834000       15.9994           0
     48608 WT4      973      TIP3     H1       HT       0.417000        1.0080           0
     48609 WT4      973      TIP3     H2       HT       0.417000        1.0080           0
     48610 WT4      974      TIP3     OH2      OT      -0.834000       15.9994           0
     48611 WT4      974      TIP3     H1       HT       0.417000        1.0080           0
     48612 WT4      974      TIP3     H2       HT       0.417000        1.0080           0
     48613 WT4      975      TIP3     OH2      OT      -0.834000       15.9994           0
     48614 WT4      975      TIP3     H1       HT       0.417000        1.0080           0
     48615 WT4      975      TIP3     H2       HT       0.417000        1.0080           0
     48616 WT4      976      TIP3     OH2      OT      -0.834000       15.9994           0
     48617 WT4      976      TIP3     H1       HT       0.417000        1.0080           0
     48618 WT4      976      TIP3     H2       HT       0.417000        1.0080           0
     48619 WT4      987      TIP3     OH2      OT      -0.834000       15.9994           0
     48620 WT4      987      TIP3     H1       HT       0.417000        1.0080           0
     48621 WT4      987      TIP3     H2       HT       0.417000        1.0080           0
     48622 WT4      992      TIP3     OH2      OT      -0.834000       15.9994           0
     48623 WT4      992      TIP3     H1       HT       0.417000        1.0080           0
     48624 WT4      992      TIP3     H2       HT       0.417000        1.0080           0
     48625 WT4      993      TIP3     OH2      OT      -0.834000       15.9994           0
     48626 WT4      993      TIP3     H1       HT       0.417000        1.0080           0
     48627 WT4      993      TIP3     H2       HT       0.417000        1.0080           0
     48628 WT4      995      TIP3     OH2      OT      -0.834000       15.9994           0
     48629 WT4      995      TIP3     H1       HT       0.417000        1.0080           0
     48630 WT4      995      TIP3     H2       HT       0.417000        1.0080           0
     48631 WT4      996      TIP3     OH2      OT      -0.834000       15.9994           0
     48632 WT4      996      TIP3     H1       HT       0.417000        1.0080           0
     48633 WT4      996      TIP3     H2       HT       0.417000        1.0080           0
     48634 WT4      1007     TIP3     OH2      OT      -0.834000       15.9994           0
     48635 WT4      1007     TIP3     H1       HT       0.417000        1.0080           0
     48636 WT4      1007     TIP3     H2       HT       0.417000        1.0080           0
     48637 WT4      1010     TIP3     OH2      OT      -0.834000       15.9994           0
     48638 WT4      1010     TIP3     H1       HT       0.417000        1.0080           0
     48639 WT4      1010     TIP3     H2       HT       0.417000        1.0080           0
     48640 WT4      1011     TIP3     OH2      OT      -0.834000       15.9994           0
     48641 WT4      1011     TIP3     H1       HT       0.417000        1.0080           0
     48642 WT4      1011     TIP3     H2       HT       0.417000        1.0080           0
     48643 WT4      1013     TIP3     OH2      OT      -0.834000       15.9994           0
     48644 WT4      1013     TIP3     H1       HT       0.417000        1.0080           0
     48645 WT4      1013     TIP3     H2       HT       0.417000        1.0080           0
     48646 WT4      1014     TIP3     OH2      OT      -0.834000       15.9994           0
     48647 WT4      1014     TIP3     H1       HT       0.417000        1.0080           0
     48648 WT4      1014     TIP3     H2       HT       0.417000        1.0080           0
     48649 WT4      1015     TIP3     OH2      OT      -0.834000       15.9994           0
     48650 WT4      1015     TIP3     H1       HT       0.417000        1.0080           0
     48651 WT4      1015     TIP3     H2       HT       0.417000        1.0080           0
     48652 WT4      1017     TIP3     OH2      OT      -0.834000       15.9994           0
     48653 WT4      1017     TIP3     H1       HT       0.417000        1.0080           0
     48654 WT4      1017     TIP3     H2       HT       0.417000        1.0080           0
     48655 WT4      1018     TIP3     OH2      OT      -0.834000       15.9994           0
     48656 WT4      1018     TIP3     H1       HT       0.417000        1.0080           0
     48657 WT4      1018     TIP3     H2       HT       0.417000        1.0080           0
     48658 WT4      1027     TIP3     OH2      OT      -0.834000       15.9994           0
     48659 WT4      1027     TIP3     H1       HT       0.417000        1.0080           0
     48660 WT4      1027     TIP3     H2       HT       0.417000        1.0080           0
     48661 WT4      1032     TIP3     OH2      OT      -0.834000       15.9994           0
     48662 WT4      1032     TIP3     H1       HT       0.417000        1.0080           0
     48663 WT4      1032     TIP3     H2       HT       0.417000        1.0080           0
     48664 WT4      1051     TIP3     OH2      OT      -0.834000       15.9994           0
     48665 WT4      1051     TIP3     H1       HT       0.417000        1.0080           0
     48666 WT4      1051     TIP3     H2       HT       0.417000        1.0080           0
     48667 WT4      1053     TIP3     OH2      OT      -0.834000       15.9994           0
     48668 WT4      1053     TIP3     H1       HT       0.417000        1.0080           0
     48669 WT4      1053     TIP3     H2       HT       0.417000        1.0080           0
     48670 WT4      1094     TIP3     OH2      OT      -0.834000       15.9994           0
     48671 WT4      1094     TIP3     H1       HT       0.417000        1.0080           0
     48672 WT4      1094     TIP3     H2       HT       0.417000        1.0080           0
     48673 WT4      1115     TIP3     OH2      OT      -0.834000       15.9994           0
     48674 WT4      1115     TIP3     H1       HT       0.417000        1.0080           0
     48675 WT4      1115     TIP3     H2       HT       0.417000        1.0080           0
     48676 WT4      1117     TIP3     OH2      OT      -0.834000       15.9994           0
     48677 WT4      1117     TIP3     H1       HT       0.417000        1.0080           0
     48678 WT4      1117     TIP3     H2       HT       0.417000        1.0080           0
     48679 WT4      1301     TIP3     OH2      OT      -0.834000       15.9994           0
     48680 WT4      1301     TIP3     H1       HT       0.417000        1.0080           0
     48681 WT4      1301     TIP3     H2       HT       0.417000        1.0080           0
     48682 WT4      1305     TIP3     OH2      OT      -0.834000       15.9994           0
     48683 WT4      1305     TIP3     H1       HT       0.417000        1.0080           0
     48684 WT4      1305     TIP3     H2       HT       0.417000        1.0080           0
     48685 WT4      1307     TIP3     OH2      OT      -0.834000       15.9994           0
     48686 WT4      1307     TIP3     H1       HT       0.417000        1.0080           0
     48687 WT4      1307     TIP3     H2       HT       0.417000        1.0080           0
     48688 WT4      1308     TIP3     OH2      OT      -0.834000       15.9994           0
     48689 WT4      1308     TIP3     H1       HT       0.417000        1.0080           0
     48690 WT4      1308     TIP3     H2       HT       0.417000        1.0080           0
     48691 WT4      1322     TIP3     OH2      OT      -0.834000       15.9994           0
     48692 WT4      1322     TIP3     H1       HT       0.417000        1.0080           0
     48693 WT4      1322     TIP3     H2       HT       0.417000        1.0080           0
     48694 WT4      1326     TIP3     OH2      OT      -0.834000       15.9994           0
     48695 WT4      1326     TIP3     H1       HT       0.417000        1.0080           0
     48696 WT4      1326     TIP3     H2       HT       0.417000        1.0080           0
     48697 WT4      1327     TIP3     OH2      OT      -0.834000       15.9994           0
     48698 WT4      1327     TIP3     H1       HT       0.417000        1.0080           0
     48699 WT4      1327     TIP3     H2       HT       0.417000        1.0080           0
     48700 WT4      1328     TIP3     OH2      OT      -0.834000       15.9994           0
     48701 WT4      1328     TIP3     H1       HT       0.417000        1.0080           0
     48702 WT4      1328     TIP3     H2       HT       0.417000        1.0080           0
     48703 WT4      1329     TIP3     OH2      OT      -0.834000       15.9994           0
     48704 WT4      1329     TIP3     H1       HT       0.417000        1.0080           0
     48705 WT4      1329     TIP3     H2       HT       0.417000        1.0080           0
     48706 WT4      1330     TIP3     OH2      OT      -0.834000       15.9994           0
     48707 WT4      1330     TIP3     H1       HT       0.417000        1.0080           0
     48708 WT4      1330     TIP3     H2       HT       0.417000        1.0080           0
     48709 WT4      1331     TIP3     OH2      OT      -0.834000       15.9994           0
     48710 WT4      1331     TIP3     H1       HT       0.417000        1.0080           0
     48711 WT4      1331     TIP3     H2       HT       0.417000        1.0080           0
     48712 WT4      1333     TIP3     OH2      OT      -0.834000       15.9994           0
     48713 WT4      1333     TIP3     H1       HT       0.417000        1.0080           0
     48714 WT4      1333     TIP3     H2       HT       0.417000        1.0080           0
     48715 WT4      1344     TIP3     OH2      OT      -0.834000       15.9994           0
     48716 WT4      1344     TIP3     H1       HT       0.417000        1.0080           0
     48717 WT4      1344     TIP3     H2       HT       0.417000        1.0080           0
     48718 WT4      1346     TIP3     OH2      OT      -0.834000       15.9994           0
     48719 WT4      1346     TIP3     H1       HT       0.417000        1.0080           0
     48720 WT4      1346     TIP3     H2       HT       0.417000        1.0080           0
     48721 WT4      1347     TIP3     OH2      OT      -0.834000       15.9994           0
     48722 WT4      1347     TIP3     H1       HT       0.417000        1.0080           0
     48723 WT4      1347     TIP3     H2       HT       0.417000        1.0080           0
     48724 WT4      1349     TIP3     OH2      OT      -0.834000       15.9994           0
     48725 WT4      1349     TIP3     H1       HT       0.417000        1.0080           0
     48726 WT4      1349     TIP3     H2       HT       0.417000        1.0080           0
     48727 WT4      1350     TIP3     OH2      OT      -0.834000       15.9994           0
     48728 WT4      1350     TIP3     H1       HT       0.417000        1.0080           0
     48729 WT4      1350     TIP3     H2       HT       0.417000        1.0080           0
     48730 WT4      1351     TIP3     OH2      OT      -0.834000       15.9994           0
     48731 WT4      1351     TIP3     H1       HT       0.417000        1.0080           0
     48732 WT4      1351     TIP3     H2       HT       0.417000        1.0080           0
     48733 WT4      1352     TIP3     OH2      OT      -0.834000       15.9994           0
     48734 WT4      1352     TIP3     H1       HT       0.417000        1.0080           0
     48735 WT4      1352     TIP3     H2       HT       0.417000        1.0080           0
     48736 WT4      1354     TIP3     OH2      OT      -0.834000       15.9994           0
     48737 WT4      1354     TIP3     H1       HT       0.417000        1.0080           0
     48738 WT4      1354     TIP3     H2       HT       0.417000        1.0080           0
     48739 WT4      1355     TIP3     OH2      OT      -0.834000       15.9994           0
     48740 WT4      1355     TIP3     H1       HT       0.417000        1.0080           0
     48741 WT4      1355     TIP3     H2       HT       0.417000        1.0080           0
     48742 WT4      1367     TIP3     OH2      OT      -0.834000       15.9994           0
     48743 WT4      1367     TIP3     H1       HT       0.417000        1.0080           0
     48744 WT4      1367     TIP3     H2       HT       0.417000        1.0080           0
     48745 WT4      1368     TIP3     OH2      OT      -0.834000       15.9994           0
     48746 WT4      1368     TIP3     H1       HT       0.417000        1.0080           0
     48747 WT4      1368     TIP3     H2       HT       0.417000        1.0080           0
     48748 WT4      1370     TIP3     OH2      OT      -0.834000       15.9994           0
     48749 WT4      1370     TIP3     H1       HT       0.417000        1.0080           0
     48750 WT4      1370     TIP3     H2       HT       0.417000        1.0080           0
     48751 WT4      1371     TIP3     OH2      OT      -0.834000       15.9994           0
     48752 WT4      1371     TIP3     H1       HT       0.417000        1.0080           0
     48753 WT4      1371     TIP3     H2       HT       0.417000        1.0080           0
     48754 WT4      1374     TIP3     OH2      OT      -0.834000       15.9994           0
     48755 WT4      1374     TIP3     H1       HT       0.417000        1.0080           0
     48756 WT4      1374     TIP3     H2       HT       0.417000        1.0080           0
     48757 WT4      1375     TIP3     OH2      OT      -0.834000       15.9994           0
     48758 WT4      1375     TIP3     H1       HT       0.417000        1.0080           0
     48759 WT4      1375     TIP3     H2       HT       0.417000        1.0080           0
     48760 WT4      1376     TIP3     OH2      OT      -0.834000       15.9994           0
     48761 WT4      1376     TIP3     H1       HT       0.417000        1.0080           0
     48762 WT4      1376     TIP3     H2       HT       0.417000        1.0080           0
     48763 WT4      1386     TIP3     OH2      OT      -0.834000       15.9994           0
     48764 WT4      1386     TIP3     H1       HT       0.417000        1.0080           0
     48765 WT4      1386     TIP3     H2       HT       0.417000        1.0080           0
     48766 WT4      1387     TIP3     OH2      OT      -0.834000       15.9994           0
     48767 WT4      1387     TIP3     H1       HT       0.417000        1.0080           0
     48768 WT4      1387     TIP3     H2       HT       0.417000        1.0080           0
     48769 WT4      1388     TIP3     OH2      OT      -0.834000       15.9994           0
     48770 WT4      1388     TIP3     H1       HT       0.417000        1.0080           0
     48771 WT4      1388     TIP3     H2       HT       0.417000        1.0080           0
     48772 WT4      1389     TIP3     OH2      OT      -0.834000       15.9994           0
     48773 WT4      1389     TIP3     H1       HT       0.417000        1.0080           0
     48774 WT4      1389     TIP3     H2       HT       0.417000        1.0080           0
     48775 WT4      1392     TIP3     OH2      OT      -0.834000       15.9994           0
     48776 WT4      1392     TIP3     H1       HT       0.417000        1.0080           0
     48777 WT4      1392     TIP3     H2       HT       0.417000        1.0080           0
     48778 WT4      1393     TIP3     OH2      OT      -0.834000       15.9994           0
     48779 WT4      1393     TIP3     H1       HT       0.417000        1.0080           0
     48780 WT4      1393     TIP3     H2       HT       0.417000        1.0080           0
     48781 WT4      1407     TIP3     OH2      OT      -0.834000       15.9994           0
     48782 WT4      1407     TIP3     H1       HT       0.417000        1.0080           0
     48783 WT4      1407     TIP3     H2       HT       0.417000        1.0080           0
     48784 WT4      1411     TIP3     OH2      OT      -0.834000       15.9994           0
     48785 WT4      1411     TIP3     H1       HT       0.417000        1.0080           0
     48786 WT4      1411     TIP3     H2       HT       0.417000        1.0080           0
     48787 WT4      1412     TIP3     OH2      OT      -0.834000       15.9994           0
     48788 WT4      1412     TIP3     H1       HT       0.417000        1.0080           0
     48789 WT4      1412     TIP3     H2       HT       0.417000        1.0080           0
     48790 WT4      1413     TIP3     OH2      OT      -0.834000       15.9994           0
     48791 WT4      1413     TIP3     H1       HT       0.417000        1.0080           0
     48792 WT4      1413     TIP3     H2       HT       0.417000        1.0080           0
     48793 WT4      1414     TIP3     OH2      OT      -0.834000       15.9994           0
     48794 WT4      1414     TIP3     H1       HT       0.417000        1.0080           0
     48795 WT4      1414     TIP3     H2       HT       0.417000        1.0080           0
     48796 WT4      1415     TIP3     OH2      OT      -0.834000       15.9994           0
     48797 WT4      1415     TIP3     H1       HT       0.417000        1.0080           0
     48798 WT4      1415     TIP3     H2       HT       0.417000        1.0080           0
     48799 WT4      1418     TIP3     OH2      OT      -0.834000       15.9994           0
     48800 WT4      1418     TIP3     H1       HT       0.417000        1.0080           0
     48801 WT4      1418     TIP3     H2       HT       0.417000        1.0080           0
     48802 WT4      1425     TIP3     OH2      OT      -0.834000       15.9994           0
     48803 WT4      1425     TIP3     H1       HT       0.417000        1.0080           0
     48804 WT4      1425     TIP3     H2       HT       0.417000        1.0080           0
     48805 WT4      1427     TIP3     OH2      OT      -0.834000       15.9994           0
     48806 WT4      1427     TIP3     H1       HT       0.417000        1.0080           0
     48807 WT4      1427     TIP3     H2       HT       0.417000        1.0080           0
     48808 WT4      1428     TIP3     OH2      OT      -0.834000       15.9994           0
     48809 WT4      1428     TIP3     H1       HT       0.417000        1.0080           0
     48810 WT4      1428     TIP3     H2       HT       0.417000        1.0080           0
     48811 WT4      1429     TIP3     OH2      OT      -0.834000       15.9994           0
     48812 WT4      1429     TIP3     H1       HT       0.417000        1.0080           0
     48813 WT4      1429     TIP3     H2       HT       0.417000        1.0080           0
     48814 WT4      1431     TIP3     OH2      OT      -0.834000       15.9994           0
     48815 WT4      1431     TIP3     H1       HT       0.417000        1.0080           0
     48816 WT4      1431     TIP3     H2       HT       0.417000        1.0080           0
     48817 WT4      1433     TIP3     OH2      OT      -0.834000       15.9994           0
     48818 WT4      1433     TIP3     H1       HT       0.417000        1.0080           0
     48819 WT4      1433     TIP3     H2       HT       0.417000        1.0080           0
     48820 WT4      1435     TIP3     OH2      OT      -0.834000       15.9994           0
     48821 WT4      1435     TIP3     H1       HT       0.417000        1.0080           0
     48822 WT4      1435     TIP3     H2       HT       0.417000        1.0080           0
     48823 WT4      1440     TIP3     OH2      OT      -0.834000       15.9994           0
     48824 WT4      1440     TIP3     H1       HT       0.417000        1.0080           0
     48825 WT4      1440     TIP3     H2       HT       0.417000        1.0080           0
     48826 WT4      1451     TIP3     OH2      OT      -0.834000       15.9994           0
     48827 WT4      1451     TIP3     H1       HT       0.417000        1.0080           0
     48828 WT4      1451     TIP3     H2       HT       0.417000        1.0080           0
     48829 WT4      1452     TIP3     OH2      OT      -0.834000       15.9994           0
     48830 WT4      1452     TIP3     H1       HT       0.417000        1.0080           0
     48831 WT4      1452     TIP3     H2       HT       0.417000        1.0080           0
     48832 WT4      1454     TIP3     OH2      OT      -0.834000       15.9994           0
     48833 WT4      1454     TIP3     H1       HT       0.417000        1.0080           0
     48834 WT4      1454     TIP3     H2       HT       0.417000        1.0080           0
     48835 WT4      1455     TIP3     OH2      OT      -0.834000       15.9994           0
     48836 WT4      1455     TIP3     H1       HT       0.417000        1.0080           0
     48837 WT4      1455     TIP3     H2       HT       0.417000        1.0080           0
     48838 WT4      1457     TIP3     OH2      OT      -0.834000       15.9994           0
     48839 WT4      1457     TIP3     H1       HT       0.417000        1.0080           0
     48840 WT4      1457     TIP3     H2       HT       0.417000        1.0080           0
     48841 WT4      1458     TIP3     OH2      OT      -0.834000       15.9994           0
     48842 WT4      1458     TIP3     H1       HT       0.417000        1.0080           0
     48843 WT4      1458     TIP3     H2       HT       0.417000        1.0080           0
     48844 WT4      1471     TIP3     OH2      OT      -0.834000       15.9994           0
     48845 WT4      1471     TIP3     H1       HT       0.417000        1.0080           0
     48846 WT4      1471     TIP3     H2       HT       0.417000        1.0080           0
     48847 WT4      1474     TIP3     OH2      OT      -0.834000       15.9994           0
     48848 WT4      1474     TIP3     H1       HT       0.417000        1.0080           0
     48849 WT4      1474     TIP3     H2       HT       0.417000        1.0080           0
     48850 WT4      1475     TIP3     OH2      OT      -0.834000       15.9994           0
     48851 WT4      1475     TIP3     H1       HT       0.417000        1.0080           0
     48852 WT4      1475     TIP3     H2       HT       0.417000        1.0080           0
     48853 WT4      1494     TIP3     OH2      OT      -0.834000       15.9994           0
     48854 WT4      1494     TIP3     H1       HT       0.417000        1.0080           0
     48855 WT4      1494     TIP3     H2       HT       0.417000        1.0080           0
     48856 WT4      1496     TIP3     OH2      OT      -0.834000       15.9994           0
     48857 WT4      1496     TIP3     H1       HT       0.417000        1.0080           0
     48858 WT4      1496     TIP3     H2       HT       0.417000        1.0080           0
     48859 WT4      1497     TIP3     OH2      OT      -0.834000       15.9994           0
     48860 WT4      1497     TIP3     H1       HT       0.417000        1.0080           0
     48861 WT4      1497     TIP3     H2       HT       0.417000        1.0080           0
     48862 WT4      1512     TIP3     OH2      OT      -0.834000       15.9994           0
     48863 WT4      1512     TIP3     H1       HT       0.417000        1.0080           0
     48864 WT4      1512     TIP3     H2       HT       0.417000        1.0080           0
     48865 WT4      1532     TIP3     OH2      OT      -0.834000       15.9994           0
     48866 WT4      1532     TIP3     H1       HT       0.417000        1.0080           0
     48867 WT4      1532     TIP3     H2       HT       0.417000        1.0080           0
     48868 WT4      1551     TIP3     OH2      OT      -0.834000       15.9994           0
     48869 WT4      1551     TIP3     H1       HT       0.417000        1.0080           0
     48870 WT4      1551     TIP3     H2       HT       0.417000        1.0080           0
     48871 WT4      1559     TIP3     OH2      OT      -0.834000       15.9994           0
     48872 WT4      1559     TIP3     H1       HT       0.417000        1.0080           0
     48873 WT4      1559     TIP3     H2       HT       0.417000        1.0080           0
     48874 WT4      1611     TIP3     OH2      OT      -0.834000       15.9994           0
     48875 WT4      1611     TIP3     H1       HT       0.417000        1.0080           0
     48876 WT4      1611     TIP3     H2       HT       0.417000        1.0080           0
     48877 WT4      1707     TIP3     OH2      OT      -0.834000       15.9994           0
     48878 WT4      1707     TIP3     H1       HT       0.417000        1.0080           0
     48879 WT4      1707     TIP3     H2       HT       0.417000        1.0080           0
     48880 WT4      1712     TIP3     OH2      OT      -0.834000       15.9994           0
     48881 WT4      1712     TIP3     H1       HT       0.417000        1.0080           0
     48882 WT4      1712     TIP3     H2       HT       0.417000        1.0080           0
     48883 WT4      1723     TIP3     OH2      OT      -0.834000       15.9994           0
     48884 WT4      1723     TIP3     H1       HT       0.417000        1.0080           0
     48885 WT4      1723     TIP3     H2       HT       0.417000        1.0080           0
     48886 WT4      1725     TIP3     OH2      OT      -0.834000       15.9994           0
     48887 WT4      1725     TIP3     H1       HT       0.417000        1.0080           0
     48888 WT4      1725     TIP3     H2       HT       0.417000        1.0080           0
     48889 WT4      1729     TIP3     OH2      OT      -0.834000       15.9994           0
     48890 WT4      1729     TIP3     H1       HT       0.417000        1.0080           0
     48891 WT4      1729     TIP3     H2       HT       0.417000        1.0080           0
     48892 WT4      1730     TIP3     OH2      OT      -0.834000       15.9994           0
     48893 WT4      1730     TIP3     H1       HT       0.417000        1.0080           0
     48894 WT4      1730     TIP3     H2       HT       0.417000        1.0080           0
     48895 WT4      1733     TIP3     OH2      OT      -0.834000       15.9994           0
     48896 WT4      1733     TIP3     H1       HT       0.417000        1.0080           0
     48897 WT4      1733     TIP3     H2       HT       0.417000        1.0080           0
     48898 WT4      1744     TIP3     OH2      OT      -0.834000       15.9994           0
     48899 WT4      1744     TIP3     H1       HT       0.417000        1.0080           0
     48900 WT4      1744     TIP3     H2       HT       0.417000        1.0080           0
     48901 WT4      1746     TIP3     OH2      OT      -0.834000       15.9994           0
     48902 WT4      1746     TIP3     H1       HT       0.417000        1.0080           0
     48903 WT4      1746     TIP3     H2       HT       0.417000        1.0080           0
     48904 WT4      1748     TIP3     OH2      OT      -0.834000       15.9994           0
     48905 WT4      1748     TIP3     H1       HT       0.417000        1.0080           0
     48906 WT4      1748     TIP3     H2       HT       0.417000        1.0080           0
     48907 WT4      1752     TIP3     OH2      OT      -0.834000       15.9994           0
     48908 WT4      1752     TIP3     H1       HT       0.417000        1.0080           0
     48909 WT4      1752     TIP3     H2       HT       0.417000        1.0080           0
     48910 WT4      1764     TIP3     OH2      OT      -0.834000       15.9994           0
     48911 WT4      1764     TIP3     H1       HT       0.417000        1.0080           0
     48912 WT4      1764     TIP3     H2       HT       0.417000        1.0080           0
     48913 WT4      1766     TIP3     OH2      OT      -0.834000       15.9994           0
     48914 WT4      1766     TIP3     H1       HT       0.417000        1.0080           0
     48915 WT4      1766     TIP3     H2       HT       0.417000        1.0080           0
     48916 WT4      1768     TIP3     OH2      OT      -0.834000       15.9994           0
     48917 WT4      1768     TIP3     H1       HT       0.417000        1.0080           0
     48918 WT4      1768     TIP3     H2       HT       0.417000        1.0080           0
     48919 WT4      1771     TIP3     OH2      OT      -0.834000       15.9994           0
     48920 WT4      1771     TIP3     H1       HT       0.417000        1.0080           0
     48921 WT4      1771     TIP3     H2       HT       0.417000        1.0080           0
     48922 WT4      1773     TIP3     OH2      OT      -0.834000       15.9994           0
     48923 WT4      1773     TIP3     H1       HT       0.417000        1.0080           0
     48924 WT4      1773     TIP3     H2       HT       0.417000        1.0080           0
     48925 WT4      1788     TIP3     OH2      OT      -0.834000       15.9994           0
     48926 WT4      1788     TIP3     H1       HT       0.417000        1.0080           0
     48927 WT4      1788     TIP3     H2       HT       0.417000        1.0080           0
     48928 WT4      1789     TIP3     OH2      OT      -0.834000       15.9994           0
     48929 WT4      1789     TIP3     H1       HT       0.417000        1.0080           0
     48930 WT4      1789     TIP3     H2       HT       0.417000        1.0080           0
     48931 WT4      1790     TIP3     OH2      OT      -0.834000       15.9994           0
     48932 WT4      1790     TIP3     H1       HT       0.417000        1.0080           0
     48933 WT4      1790     TIP3     H2       HT       0.417000        1.0080           0
     48934 WT4      1795     TIP3     OH2      OT      -0.834000       15.9994           0
     48935 WT4      1795     TIP3     H1       HT       0.417000        1.0080           0
     48936 WT4      1795     TIP3     H2       HT       0.417000        1.0080           0
     48937 WT4      1796     TIP3     OH2      OT      -0.834000       15.9994           0
     48938 WT4      1796     TIP3     H1       HT       0.417000        1.0080           0
     48939 WT4      1796     TIP3     H2       HT       0.417000        1.0080           0
     48940 WT4      1808     TIP3     OH2      OT      -0.834000       15.9994           0
     48941 WT4      1808     TIP3     H1       HT       0.417000        1.0080           0
     48942 WT4      1808     TIP3     H2       HT       0.417000        1.0080           0
     48943 WT4      1810     TIP3     OH2      OT      -0.834000       15.9994           0
     48944 WT4      1810     TIP3     H1       HT       0.417000        1.0080           0
     48945 WT4      1810     TIP3     H2       HT       0.417000        1.0080           0
     48946 WT4      1811     TIP3     OH2      OT      -0.834000       15.9994           0
     48947 WT4      1811     TIP3     H1       HT       0.417000        1.0080           0
     48948 WT4      1811     TIP3     H2       HT       0.417000        1.0080           0
     48949 WT4      1813     TIP3     OH2      OT      -0.834000       15.9994           0
     48950 WT4      1813     TIP3     H1       HT       0.417000        1.0080           0
     48951 WT4      1813     TIP3     H2       HT       0.417000        1.0080           0
     48952 WT4      1814     TIP3     OH2      OT      -0.834000       15.9994           0
     48953 WT4      1814     TIP3     H1       HT       0.417000        1.0080           0
     48954 WT4      1814     TIP3     H2       HT       0.417000        1.0080           0
     48955 WT4      1816     TIP3     OH2      OT      -0.834000       15.9994           0
     48956 WT4      1816     TIP3     H1       HT       0.417000        1.0080           0
     48957 WT4      1816     TIP3     H2       HT       0.417000        1.0080           0
     48958 WT4      1824     TIP3     OH2      OT      -0.834000       15.9994           0
     48959 WT4      1824     TIP3     H1       HT       0.417000        1.0080           0
     48960 WT4      1824     TIP3     H2       HT       0.417000        1.0080           0
     48961 WT4      1829     TIP3     OH2      OT      -0.834000       15.9994           0
     48962 WT4      1829     TIP3     H1       HT       0.417000        1.0080           0
     48963 WT4      1829     TIP3     H2       HT       0.417000        1.0080           0
     48964 WT4      1830     TIP3     OH2      OT      -0.834000       15.9994           0
     48965 WT4      1830     TIP3     H1       HT       0.417000        1.0080           0
     48966 WT4      1830     TIP3     H2       HT       0.417000        1.0080           0
     48967 WT4      1831     TIP3     OH2      OT      -0.834000       15.9994           0
     48968 WT4      1831     TIP3     H1       HT       0.417000        1.0080           0
     48969 WT4      1831     TIP3     H2       HT       0.417000        1.0080           0
     48970 WT4      1832     TIP3     OH2      OT      -0.834000       15.9994           0
     48971 WT4      1832     TIP3     H1       HT       0.417000        1.0080           0
     48972 WT4      1832     TIP3     H2       HT       0.417000        1.0080           0
     48973 WT4      1836     TIP3     OH2      OT      -0.834000       15.9994           0
     48974 WT4      1836     TIP3     H1       HT       0.417000        1.0080           0
     48975 WT4      1836     TIP3     H2       HT       0.417000        1.0080           0
     48976 WT4      1838     TIP3     OH2      OT      -0.834000       15.9994           0
     48977 WT4      1838     TIP3     H1       HT       0.417000        1.0080           0
     48978 WT4      1838     TIP3     H2       HT       0.417000        1.0080           0
     48979 WT4      1851     TIP3     OH2      OT      -0.834000       15.9994           0
     48980 WT4      1851     TIP3     H1       HT       0.417000        1.0080           0
     48981 WT4      1851     TIP3     H2       HT       0.417000        1.0080           0
     48982 WT4      1853     TIP3     OH2      OT      -0.834000       15.9994           0
     48983 WT4      1853     TIP3     H1       HT       0.417000        1.0080           0
     48984 WT4      1853     TIP3     H2       HT       0.417000        1.0080           0
     48985 WT4      1854     TIP3     OH2      OT      -0.834000       15.9994           0
     48986 WT4      1854     TIP3     H1       HT       0.417000        1.0080           0
     48987 WT4      1854     TIP3     H2       HT       0.417000        1.0080           0
     48988 WT4      1856     TIP3     OH2      OT      -0.834000       15.9994           0
     48989 WT4      1856     TIP3     H1       HT       0.417000        1.0080           0
     48990 WT4      1856     TIP3     H2       HT       0.417000        1.0080           0
     48991 WT4      1861     TIP3     OH2      OT      -0.834000       15.9994           0
     48992 WT4      1861     TIP3     H1       HT       0.417000        1.0080           0
     48993 WT4      1861     TIP3     H2       HT       0.417000        1.0080           0
     48994 WT4      1871     TIP3     OH2      OT      -0.834000       15.9994           0
     48995 WT4      1871     TIP3     H1       HT       0.417000        1.0080           0
     48996 WT4      1871     TIP3     H2       HT       0.417000        1.0080           0
     48997 WT4      1872     TIP3     OH2      OT      -0.834000       15.9994           0
     48998 WT4      1872     TIP3     H1       HT       0.417000        1.0080           0
     48999 WT4      1872     TIP3     H2       HT       0.417000        1.0080           0
     49000 WT4      1873     TIP3     OH2      OT      -0.834000       15.9994           0
     49001 WT4      1873     TIP3     H1       HT       0.417000        1.0080           0
     49002 WT4      1873     TIP3     H2       HT       0.417000        1.0080           0
     49003 WT4      1874     TIP3     OH2      OT      -0.834000       15.9994           0
     49004 WT4      1874     TIP3     H1       HT       0.417000        1.0080           0
     49005 WT4      1874     TIP3     H2       HT       0.417000        1.0080           0
     49006 WT4      1878     TIP3     OH2      OT      -0.834000       15.9994           0
     49007 WT4      1878     TIP3     H1       HT       0.417000        1.0080           0
     49008 WT4      1878     TIP3     H2       HT       0.417000        1.0080           0
     49009 WT4      1881     TIP3     OH2      OT      -0.834000       15.9994           0
     49010 WT4      1881     TIP3     H1       HT       0.417000        1.0080           0
     49011 WT4      1881     TIP3     H2       HT       0.417000        1.0080           0
     49012 WT4      1885     TIP3     OH2      OT      -0.834000       15.9994           0
     49013 WT4      1885     TIP3     H1       HT       0.417000        1.0080           0
     49014 WT4      1885     TIP3     H2       HT       0.417000        1.0080           0
     49015 WT4      1894     TIP3     OH2      OT      -0.834000       15.9994           0
     49016 WT4      1894     TIP3     H1       HT       0.417000        1.0080           0
     49017 WT4      1894     TIP3     H2       HT       0.417000        1.0080           0
     49018 WT4      1895     TIP3     OH2      OT      -0.834000       15.9994           0
     49019 WT4      1895     TIP3     H1       HT       0.417000        1.0080           0
     49020 WT4      1895     TIP3     H2       HT       0.417000        1.0080           0
     49021 WT4      1896     TIP3     OH2      OT      -0.834000       15.9994           0
     49022 WT4      1896     TIP3     H1       HT       0.417000        1.0080           0
     49023 WT4      1896     TIP3     H2       HT       0.417000        1.0080           0
     49024 WT4      1897     TIP3     OH2      OT      -0.834000       15.9994           0
     49025 WT4      1897     TIP3     H1       HT       0.417000        1.0080           0
     49026 WT4      1897     TIP3     H2       HT       0.417000        1.0080           0
     49027 WT4      1911     TIP3     OH2      OT      -0.834000       15.9994           0
     49028 WT4      1911     TIP3     H1       HT       0.417000        1.0080           0
     49029 WT4      1911     TIP3     H2       HT       0.417000        1.0080           0
     49030 WT4      1912     TIP3     OH2      OT      -0.834000       15.9994           0
     49031 WT4      1912     TIP3     H1       HT       0.417000        1.0080           0
     49032 WT4      1912     TIP3     H2       HT       0.417000        1.0080           0
     49033 WT4      1914     TIP3     OH2      OT      -0.834000       15.9994           0
     49034 WT4      1914     TIP3     H1       HT       0.417000        1.0080           0
     49035 WT4      1914     TIP3     H2       HT       0.417000        1.0080           0
     49036 WT4      1915     TIP3     OH2      OT      -0.834000       15.9994           0
     49037 WT4      1915     TIP3     H1       HT       0.417000        1.0080           0
     49038 WT4      1915     TIP3     H2       HT       0.417000        1.0080           0
     49039 WT4      1938     TIP3     OH2      OT      -0.834000       15.9994           0
     49040 WT4      1938     TIP3     H1       HT       0.417000        1.0080           0
     49041 WT4      1938     TIP3     H2       HT       0.417000        1.0080           0
     49042 WT4      1952     TIP3     OH2      OT      -0.834000       15.9994           0
     49043 WT4      1952     TIP3     H1       HT       0.417000        1.0080           0
     49044 WT4      1952     TIP3     H2       HT       0.417000        1.0080           0
     49045 WT4      1961     TIP3     OH2      OT      -0.834000       15.9994           0
     49046 WT4      1961     TIP3     H1       HT       0.417000        1.0080           0
     49047 WT4      1961     TIP3     H2       HT       0.417000        1.0080           0
     49048 WT4      1977     TIP3     OH2      OT      -0.834000       15.9994           0
     49049 WT4      1977     TIP3     H1       HT       0.417000        1.0080           0
     49050 WT4      1977     TIP3     H2       HT       0.417000        1.0080           0
     49051 WT4      1983     TIP3     OH2      OT      -0.834000       15.9994           0
     49052 WT4      1983     TIP3     H1       HT       0.417000        1.0080           0
     49053 WT4      1983     TIP3     H2       HT       0.417000        1.0080           0
     49054 WT4      2123     TIP3     OH2      OT      -0.834000       15.9994           0
     49055 WT4      2123     TIP3     H1       HT       0.417000        1.0080           0
     49056 WT4      2123     TIP3     H2       HT       0.417000        1.0080           0
     49057 WT4      2163     TIP3     OH2      OT      -0.834000       15.9994           0
     49058 WT4      2163     TIP3     H1       HT       0.417000        1.0080           0
     49059 WT4      2163     TIP3     H2       HT       0.417000        1.0080           0
     49060 WT4      2165     TIP3     OH2      OT      -0.834000       15.9994           0
     49061 WT4      2165     TIP3     H1       HT       0.417000        1.0080           0
     49062 WT4      2165     TIP3     H2       HT       0.417000        1.0080           0
     49063 WT4      2167     TIP3     OH2      OT      -0.834000       15.9994           0
     49064 WT4      2167     TIP3     H1       HT       0.417000        1.0080           0
     49065 WT4      2167     TIP3     H2       HT       0.417000        1.0080           0
     49066 WT4      2172     TIP3     OH2      OT      -0.834000       15.9994           0
     49067 WT4      2172     TIP3     H1       HT       0.417000        1.0080           0
     49068 WT4      2172     TIP3     H2       HT       0.417000        1.0080           0
     49069 WT4      2185     TIP3     OH2      OT      -0.834000       15.9994           0
     49070 WT4      2185     TIP3     H1       HT       0.417000        1.0080           0
     49071 WT4      2185     TIP3     H2       HT       0.417000        1.0080           0
     49072 WT4      2186     TIP3     OH2      OT      -0.834000       15.9994           0
     49073 WT4      2186     TIP3     H1       HT       0.417000        1.0080           0
     49074 WT4      2186     TIP3     H2       HT       0.417000        1.0080           0
     49075 WT4      2187     TIP3     OH2      OT      -0.834000       15.9994           0
     49076 WT4      2187     TIP3     H1       HT       0.417000        1.0080           0
     49077 WT4      2187     TIP3     H2       HT       0.417000        1.0080           0
     49078 WT4      2208     TIP3     OH2      OT      -0.834000       15.9994           0
     49079 WT4      2208     TIP3     H1       HT       0.417000        1.0080           0
     49080 WT4      2208     TIP3     H2       HT       0.417000        1.0080           0
     49081 WT4      2227     TIP3     OH2      OT      -0.834000       15.9994           0
     49082 WT4      2227     TIP3     H1       HT       0.417000        1.0080           0
     49083 WT4      2227     TIP3     H2       HT       0.417000        1.0080           0
     49084 WT4      2229     TIP3     OH2      OT      -0.834000       15.9994           0
     49085 WT4      2229     TIP3     H1       HT       0.417000        1.0080           0
     49086 WT4      2229     TIP3     H2       HT       0.417000        1.0080           0
     49087 WT4      2231     TIP3     OH2      OT      -0.834000       15.9994           0
     49088 WT4      2231     TIP3     H1       HT       0.417000        1.0080           0
     49089 WT4      2231     TIP3     H2       HT       0.417000        1.0080           0
     49090 WT4      2232     TIP3     OH2      OT      -0.834000       15.9994           0
     49091 WT4      2232     TIP3     H1       HT       0.417000        1.0080           0
     49092 WT4      2232     TIP3     H2       HT       0.417000        1.0080           0
     49093 WT4      2244     TIP3     OH2      OT      -0.834000       15.9994           0
     49094 WT4      2244     TIP3     H1       HT       0.417000        1.0080           0
     49095 WT4      2244     TIP3     H2       HT       0.417000        1.0080           0
     49096 WT4      2250     TIP3     OH2      OT      -0.834000       15.9994           0
     49097 WT4      2250     TIP3     H1       HT       0.417000        1.0080           0
     49098 WT4      2250     TIP3     H2       HT       0.417000        1.0080           0
     49099 WT4      2251     TIP3     OH2      OT      -0.834000       15.9994           0
     49100 WT4      2251     TIP3     H1       HT       0.417000        1.0080           0
     49101 WT4      2251     TIP3     H2       HT       0.417000        1.0080           0
     49102 WT4      2253     TIP3     OH2      OT      -0.834000       15.9994           0
     49103 WT4      2253     TIP3     H1       HT       0.417000        1.0080           0
     49104 WT4      2253     TIP3     H2       HT       0.417000        1.0080           0
     49105 WT4      2254     TIP3     OH2      OT      -0.834000       15.9994           0
     49106 WT4      2254     TIP3     H1       HT       0.417000        1.0080           0
     49107 WT4      2254     TIP3     H2       HT       0.417000        1.0080           0
     49108 WT4      2269     TIP3     OH2      OT      -0.834000       15.9994           0
     49109 WT4      2269     TIP3     H1       HT       0.417000        1.0080           0
     49110 WT4      2269     TIP3     H2       HT       0.417000        1.0080           0
     49111 WT4      2270     TIP3     OH2      OT      -0.834000       15.9994           0
     49112 WT4      2270     TIP3     H1       HT       0.417000        1.0080           0
     49113 WT4      2270     TIP3     H2       HT       0.417000        1.0080           0
     49114 WT4      2271     TIP3     OH2      OT      -0.834000       15.9994           0
     49115 WT4      2271     TIP3     H1       HT       0.417000        1.0080           0
     49116 WT4      2271     TIP3     H2       HT       0.417000        1.0080           0
     49117 WT4      2272     TIP3     OH2      OT      -0.834000       15.9994           0
     49118 WT4      2272     TIP3     H1       HT       0.417000        1.0080           0
     49119 WT4      2272     TIP3     H2       HT       0.417000        1.0080           0
     49120 WT4      2275     TIP3     OH2      OT      -0.834000       15.9994           0
     49121 WT4      2275     TIP3     H1       HT       0.417000        1.0080           0
     49122 WT4      2275     TIP3     H2       HT       0.417000        1.0080           0
     49123 WT4      2277     TIP3     OH2      OT      -0.834000       15.9994           0
     49124 WT4      2277     TIP3     H1       HT       0.417000        1.0080           0
     49125 WT4      2277     TIP3     H2       HT       0.417000        1.0080           0
     49126 WT4      2280     TIP3     OH2      OT      -0.834000       15.9994           0
     49127 WT4      2280     TIP3     H1       HT       0.417000        1.0080           0
     49128 WT4      2280     TIP3     H2       HT       0.417000        1.0080           0
     49129 WT4      2288     TIP3     OH2      OT      -0.834000       15.9994           0
     49130 WT4      2288     TIP3     H1       HT       0.417000        1.0080           0
     49131 WT4      2288     TIP3     H2       HT       0.417000        1.0080           0
     49132 WT4      2292     TIP3     OH2      OT      -0.834000       15.9994           0
     49133 WT4      2292     TIP3     H1       HT       0.417000        1.0080           0
     49134 WT4      2292     TIP3     H2       HT       0.417000        1.0080           0
     49135 WT4      2293     TIP3     OH2      OT      -0.834000       15.9994           0
     49136 WT4      2293     TIP3     H1       HT       0.417000        1.0080           0
     49137 WT4      2293     TIP3     H2       HT       0.417000        1.0080           0
     49138 WT4      2294     TIP3     OH2      OT      -0.834000       15.9994           0
     49139 WT4      2294     TIP3     H1       HT       0.417000        1.0080           0
     49140 WT4      2294     TIP3     H2       HT       0.417000        1.0080           0
     49141 WT4      2295     TIP3     OH2      OT      -0.834000       15.9994           0
     49142 WT4      2295     TIP3     H1       HT       0.417000        1.0080           0
     49143 WT4      2295     TIP3     H2       HT       0.417000        1.0080           0
     49144 WT4      2296     TIP3     OH2      OT      -0.834000       15.9994           0
     49145 WT4      2296     TIP3     H1       HT       0.417000        1.0080           0
     49146 WT4      2296     TIP3     H2       HT       0.417000        1.0080           0
     49147 WT4      2302     TIP3     OH2      OT      -0.834000       15.9994           0
     49148 WT4      2302     TIP3     H1       HT       0.417000        1.0080           0
     49149 WT4      2302     TIP3     H2       HT       0.417000        1.0080           0
     49150 WT4      2309     TIP3     OH2      OT      -0.834000       15.9994           0
     49151 WT4      2309     TIP3     H1       HT       0.417000        1.0080           0
     49152 WT4      2309     TIP3     H2       HT       0.417000        1.0080           0
     49153 WT4      2311     TIP3     OH2      OT      -0.834000       15.9994           0
     49154 WT4      2311     TIP3     H1       HT       0.417000        1.0080           0
     49155 WT4      2311     TIP3     H2       HT       0.417000        1.0080           0
     49156 WT4      2312     TIP3     OH2      OT      -0.834000       15.9994           0
     49157 WT4      2312     TIP3     H1       HT       0.417000        1.0080           0
     49158 WT4      2312     TIP3     H2       HT       0.417000        1.0080           0
     49159 WT4      2313     TIP3     OH2      OT      -0.834000       15.9994           0
     49160 WT4      2313     TIP3     H1       HT       0.417000        1.0080           0
     49161 WT4      2313     TIP3     H2       HT       0.417000        1.0080           0
     49162 WT4      2314     TIP3     OH2      OT      -0.834000       15.9994           0
     49163 WT4      2314     TIP3     H1       HT       0.417000        1.0080           0
     49164 WT4      2314     TIP3     H2       HT       0.417000        1.0080           0
     49165 WT4      2315     TIP3     OH2      OT      -0.834000       15.9994           0
     49166 WT4      2315     TIP3     H1       HT       0.417000        1.0080           0
     49167 WT4      2315     TIP3     H2       HT       0.417000        1.0080           0
     49168 WT4      2316     TIP3     OH2      OT      -0.834000       15.9994           0
     49169 WT4      2316     TIP3     H1       HT       0.417000        1.0080           0
     49170 WT4      2316     TIP3     H2       HT       0.417000        1.0080           0
     49171 WT4      2317     TIP3     OH2      OT      -0.834000       15.9994           0
     49172 WT4      2317     TIP3     H1       HT       0.417000        1.0080           0
     49173 WT4      2317     TIP3     H2       HT       0.417000        1.0080           0
     49174 WT4      2319     TIP3     OH2      OT      -0.834000       15.9994           0
     49175 WT4      2319     TIP3     H1       HT       0.417000        1.0080           0
     49176 WT4      2319     TIP3     H2       HT       0.417000        1.0080           0
     49177 WT4      2329     TIP3     OH2      OT      -0.834000       15.9994           0
     49178 WT4      2329     TIP3     H1       HT       0.417000        1.0080           0
     49179 WT4      2329     TIP3     H2       HT       0.417000        1.0080           0
     49180 WT4      2331     TIP3     OH2      OT      -0.834000       15.9994           0
     49181 WT4      2331     TIP3     H1       HT       0.417000        1.0080           0
     49182 WT4      2331     TIP3     H2       HT       0.417000        1.0080           0
     49183 WT4      2332     TIP3     OH2      OT      -0.834000       15.9994           0
     49184 WT4      2332     TIP3     H1       HT       0.417000        1.0080           0
     49185 WT4      2332     TIP3     H2       HT       0.417000        1.0080           0
     49186 WT4      2335     TIP3     OH2      OT      -0.834000       15.9994           0
     49187 WT4      2335     TIP3     H1       HT       0.417000        1.0080           0
     49188 WT4      2335     TIP3     H2       HT       0.417000        1.0080           0
     49189 WT4      2339     TIP3     OH2      OT      -0.834000       15.9994           0
     49190 WT4      2339     TIP3     H1       HT       0.417000        1.0080           0
     49191 WT4      2339     TIP3     H2       HT       0.417000        1.0080           0
     49192 WT4      2351     TIP3     OH2      OT      -0.834000       15.9994           0
     49193 WT4      2351     TIP3     H1       HT       0.417000        1.0080           0
     49194 WT4      2351     TIP3     H2       HT       0.417000        1.0080           0
     49195 WT4      2352     TIP3     OH2      OT      -0.834000       15.9994           0
     49196 WT4      2352     TIP3     H1       HT       0.417000        1.0080           0
     49197 WT4      2352     TIP3     H2       HT       0.417000        1.0080           0
     49198 WT4      2355     TIP3     OH2      OT      -0.834000       15.9994           0
     49199 WT4      2355     TIP3     H1       HT       0.417000        1.0080           0
     49200 WT4      2355     TIP3     H2       HT       0.417000        1.0080           0
     49201 WT4      2357     TIP3     OH2      OT      -0.834000       15.9994           0
     49202 WT4      2357     TIP3     H1       HT       0.417000        1.0080           0
     49203 WT4      2357     TIP3     H2       HT       0.417000        1.0080           0
     49204 WT4      2358     TIP3     OH2      OT      -0.834000       15.9994           0
     49205 WT4      2358     TIP3     H1       HT       0.417000        1.0080           0
     49206 WT4      2358     TIP3     H2       HT       0.417000        1.0080           0
     49207 WT4      2359     TIP3     OH2      OT      -0.834000       15.9994           0
     49208 WT4      2359     TIP3     H1       HT       0.417000        1.0080           0
     49209 WT4      2359     TIP3     H2       HT       0.417000        1.0080           0
     49210 WT4      2375     TIP3     OH2      OT      -0.834000       15.9994           0
     49211 WT4      2375     TIP3     H1       HT       0.417000        1.0080           0
     49212 WT4      2375     TIP3     H2       HT       0.417000        1.0080           0
     49213 WT4      2377     TIP3     OH2      OT      -0.834000       15.9994           0
     49214 WT4      2377     TIP3     H1       HT       0.417000        1.0080           0
     49215 WT4      2377     TIP3     H2       HT       0.417000        1.0080           0
     49216 WT4      2380     TIP3     OH2      OT      -0.834000       15.9994           0
     49217 WT4      2380     TIP3     H1       HT       0.417000        1.0080           0
     49218 WT4      2380     TIP3     H2       HT       0.417000        1.0080           0
     49219 WT4      2418     TIP3     OH2      OT      -0.834000       15.9994           0
     49220 WT4      2418     TIP3     H1       HT       0.417000        1.0080           0
     49221 WT4      2418     TIP3     H2       HT       0.417000        1.0080           0
     49222 WT4      2587     TIP3     OH2      OT      -0.834000       15.9994           0
     49223 WT4      2587     TIP3     H1       HT       0.417000        1.0080           0
     49224 WT4      2587     TIP3     H2       HT       0.417000        1.0080           0
     49225 WT4      2606     TIP3     OH2      OT      -0.834000       15.9994           0
     49226 WT4      2606     TIP3     H1       HT       0.417000        1.0080           0
     49227 WT4      2606     TIP3     H2       HT       0.417000        1.0080           0
     49228 WT4      2607     TIP3     OH2      OT      -0.834000       15.9994           0
     49229 WT4      2607     TIP3     H1       HT       0.417000        1.0080           0
     49230 WT4      2607     TIP3     H2       HT       0.417000        1.0080           0
     49231 WT4      2608     TIP3     OH2      OT      -0.834000       15.9994           0
     49232 WT4      2608     TIP3     H1       HT       0.417000        1.0080           0
     49233 WT4      2608     TIP3     H2       HT       0.417000        1.0080           0
     49234 WT4      2610     TIP3     OH2      OT      -0.834000       15.9994           0
     49235 WT4      2610     TIP3     H1       HT       0.417000        1.0080           0
     49236 WT4      2610     TIP3     H2       HT       0.417000        1.0080           0
     49237 WT4      2624     TIP3     OH2      OT      -0.834000       15.9994           0
     49238 WT4      2624     TIP3     H1       HT       0.417000        1.0080           0
     49239 WT4      2624     TIP3     H2       HT       0.417000        1.0080           0
     49240 WT4      2628     TIP3     OH2      OT      -0.834000       15.9994           0
     49241 WT4      2628     TIP3     H1       HT       0.417000        1.0080           0
     49242 WT4      2628     TIP3     H2       HT       0.417000        1.0080           0
     49243 WT4      2630     TIP3     OH2      OT      -0.834000       15.9994           0
     49244 WT4      2630     TIP3     H1       HT       0.417000        1.0080           0
     49245 WT4      2630     TIP3     H2       HT       0.417000        1.0080           0
     49246 WT4      2632     TIP3     OH2      OT      -0.834000       15.9994           0
     49247 WT4      2632     TIP3     H1       HT       0.417000        1.0080           0
     49248 WT4      2632     TIP3     H2       HT       0.417000        1.0080           0
     49249 WT4      2634     TIP3     OH2      OT      -0.834000       15.9994           0
     49250 WT4      2634     TIP3     H1       HT       0.417000        1.0080           0
     49251 WT4      2634     TIP3     H2       HT       0.417000        1.0080           0
     49252 WT4      2635     TIP3     OH2      OT      -0.834000       15.9994           0
     49253 WT4      2635     TIP3     H1       HT       0.417000        1.0080           0
     49254 WT4      2635     TIP3     H2       HT       0.417000        1.0080           0
     49255 WT4      2643     TIP3     OH2      OT      -0.834000       15.9994           0
     49256 WT4      2643     TIP3     H1       HT       0.417000        1.0080           0
     49257 WT4      2643     TIP3     H2       HT       0.417000        1.0080           0
     49258 WT4      2649     TIP3     OH2      OT      -0.834000       15.9994           0
     49259 WT4      2649     TIP3     H1       HT       0.417000        1.0080           0
     49260 WT4      2649     TIP3     H2       HT       0.417000        1.0080           0
     49261 WT4      2650     TIP3     OH2      OT      -0.834000       15.9994           0
     49262 WT4      2650     TIP3     H1       HT       0.417000        1.0080           0
     49263 WT4      2650     TIP3     H2       HT       0.417000        1.0080           0
     49264 WT4      2652     TIP3     OH2      OT      -0.834000       15.9994           0
     49265 WT4      2652     TIP3     H1       HT       0.417000        1.0080           0
     49266 WT4      2652     TIP3     H2       HT       0.417000        1.0080           0
     49267 WT4      2654     TIP3     OH2      OT      -0.834000       15.9994           0
     49268 WT4      2654     TIP3     H1       HT       0.417000        1.0080           0
     49269 WT4      2654     TIP3     H2       HT       0.417000        1.0080           0
     49270 WT4      2667     TIP3     OH2      OT      -0.834000       15.9994           0
     49271 WT4      2667     TIP3     H1       HT       0.417000        1.0080           0
     49272 WT4      2667     TIP3     H2       HT       0.417000        1.0080           0
     49273 WT4      2669     TIP3     OH2      OT      -0.834000       15.9994           0
     49274 WT4      2669     TIP3     H1       HT       0.417000        1.0080           0
     49275 WT4      2669     TIP3     H2       HT       0.417000        1.0080           0
     49276 WT4      2670     TIP3     OH2      OT      -0.834000       15.9994           0
     49277 WT4      2670     TIP3     H1       HT       0.417000        1.0080           0
     49278 WT4      2670     TIP3     H2       HT       0.417000        1.0080           0
     49279 WT4      2672     TIP3     OH2      OT      -0.834000       15.9994           0
     49280 WT4      2672     TIP3     H1       HT       0.417000        1.0080           0
     49281 WT4      2672     TIP3     H2       HT       0.417000        1.0080           0
     49282 WT4      2673     TIP3     OH2      OT      -0.834000       15.9994           0
     49283 WT4      2673     TIP3     H1       HT       0.417000        1.0080           0
     49284 WT4      2673     TIP3     H2       HT       0.417000        1.0080           0
     49285 WT4      2674     TIP3     OH2      OT      -0.834000       15.9994           0
     49286 WT4      2674     TIP3     H1       HT       0.417000        1.0080           0
     49287 WT4      2674     TIP3     H2       HT       0.417000        1.0080           0
     49288 WT4      2676     TIP3     OH2      OT      -0.834000       15.9994           0
     49289 WT4      2676     TIP3     H1       HT       0.417000        1.0080           0
     49290 WT4      2676     TIP3     H2       HT       0.417000        1.0080           0
     49291 WT4      2689     TIP3     OH2      OT      -0.834000       15.9994           0
     49292 WT4      2689     TIP3     H1       HT       0.417000        1.0080           0
     49293 WT4      2689     TIP3     H2       HT       0.417000        1.0080           0
     49294 WT4      2690     TIP3     OH2      OT      -0.834000       15.9994           0
     49295 WT4      2690     TIP3     H1       HT       0.417000        1.0080           0
     49296 WT4      2690     TIP3     H2       HT       0.417000        1.0080           0
     49297 WT4      2691     TIP3     OH2      OT      -0.834000       15.9994           0
     49298 WT4      2691     TIP3     H1       HT       0.417000        1.0080           0
     49299 WT4      2691     TIP3     H2       HT       0.417000        1.0080           0
     49300 WT4      2692     TIP3     OH2      OT      -0.834000       15.9994           0
     49301 WT4      2692     TIP3     H1       HT       0.417000        1.0080           0
     49302 WT4      2692     TIP3     H2       HT       0.417000        1.0080           0
     49303 WT4      2694     TIP3     OH2      OT      -0.834000       15.9994           0
     49304 WT4      2694     TIP3     H1       HT       0.417000        1.0080           0
     49305 WT4      2694     TIP3     H2       HT       0.417000        1.0080           0
     49306 WT4      2695     TIP3     OH2      OT      -0.834000       15.9994           0
     49307 WT4      2695     TIP3     H1       HT       0.417000        1.0080           0
     49308 WT4      2695     TIP3     H2       HT       0.417000        1.0080           0
     49309 WT4      2697     TIP3     OH2      OT      -0.834000       15.9994           0
     49310 WT4      2697     TIP3     H1       HT       0.417000        1.0080           0
     49311 WT4      2697     TIP3     H2       HT       0.417000        1.0080           0
     49312 WT4      2709     TIP3     OH2      OT      -0.834000       15.9994           0
     49313 WT4      2709     TIP3     H1       HT       0.417000        1.0080           0
     49314 WT4      2709     TIP3     H2       HT       0.417000        1.0080           0
     49315 WT4      2710     TIP3     OH2      OT      -0.834000       15.9994           0
     49316 WT4      2710     TIP3     H1       HT       0.417000        1.0080           0
     49317 WT4      2710     TIP3     H2       HT       0.417000        1.0080           0
     49318 WT4      2713     TIP3     OH2      OT      -0.834000       15.9994           0
     49319 WT4      2713     TIP3     H1       HT       0.417000        1.0080           0
     49320 WT4      2713     TIP3     H2       HT       0.417000        1.0080           0
     49321 WT4      2714     TIP3     OH2      OT      -0.834000       15.9994           0
     49322 WT4      2714     TIP3     H1       HT       0.417000        1.0080           0
     49323 WT4      2714     TIP3     H2       HT       0.417000        1.0080           0
     49324 WT4      2715     TIP3     OH2      OT      -0.834000       15.9994           0
     49325 WT4      2715     TIP3     H1       HT       0.417000        1.0080           0
     49326 WT4      2715     TIP3     H2       HT       0.417000        1.0080           0
     49327 WT4      2717     TIP3     OH2      OT      -0.834000       15.9994           0
     49328 WT4      2717     TIP3     H1       HT       0.417000        1.0080           0
     49329 WT4      2717     TIP3     H2       HT       0.417000        1.0080           0
     49330 WT4      2732     TIP3     OH2      OT      -0.834000       15.9994           0
     49331 WT4      2732     TIP3     H1       HT       0.417000        1.0080           0
     49332 WT4      2732     TIP3     H2       HT       0.417000        1.0080           0
     49333 WT4      2734     TIP3     OH2      OT      -0.834000       15.9994           0
     49334 WT4      2734     TIP3     H1       HT       0.417000        1.0080           0
     49335 WT4      2734     TIP3     H2       HT       0.417000        1.0080           0
     49336 WT4      2735     TIP3     OH2      OT      -0.834000       15.9994           0
     49337 WT4      2735     TIP3     H1       HT       0.417000        1.0080           0
     49338 WT4      2735     TIP3     H2       HT       0.417000        1.0080           0
     49339 WT4      2736     TIP3     OH2      OT      -0.834000       15.9994           0
     49340 WT4      2736     TIP3     H1       HT       0.417000        1.0080           0
     49341 WT4      2736     TIP3     H2       HT       0.417000        1.0080           0
     49342 WT4      2740     TIP3     OH2      OT      -0.834000       15.9994           0
     49343 WT4      2740     TIP3     H1       HT       0.417000        1.0080           0
     49344 WT4      2740     TIP3     H2       HT       0.417000        1.0080           0
     49345 WT4      2754     TIP3     OH2      OT      -0.834000       15.9994           0
     49346 WT4      2754     TIP3     H1       HT       0.417000        1.0080           0
     49347 WT4      2754     TIP3     H2       HT       0.417000        1.0080           0
     49348 WT4      2758     TIP3     OH2      OT      -0.834000       15.9994           0
     49349 WT4      2758     TIP3     H1       HT       0.417000        1.0080           0
     49350 WT4      2758     TIP3     H2       HT       0.417000        1.0080           0
     49351 WT4      2771     TIP3     OH2      OT      -0.834000       15.9994           0
     49352 WT4      2771     TIP3     H1       HT       0.417000        1.0080           0
     49353 WT4      2771     TIP3     H2       HT       0.417000        1.0080           0
     49354 WT4      2773     TIP3     OH2      OT      -0.834000       15.9994           0
     49355 WT4      2773     TIP3     H1       HT       0.417000        1.0080           0
     49356 WT4      2773     TIP3     H2       HT       0.417000        1.0080           0
     49357 WT4      2775     TIP3     OH2      OT      -0.834000       15.9994           0
     49358 WT4      2775     TIP3     H1       HT       0.417000        1.0080           0
     49359 WT4      2775     TIP3     H2       HT       0.417000        1.0080           0
     49360 WT4      2776     TIP3     OH2      OT      -0.834000       15.9994           0
     49361 WT4      2776     TIP3     H1       HT       0.417000        1.0080           0
     49362 WT4      2776     TIP3     H2       HT       0.417000        1.0080           0
     49363 WT4      2777     TIP3     OH2      OT      -0.834000       15.9994           0
     49364 WT4      2777     TIP3     H1       HT       0.417000        1.0080           0
     49365 WT4      2777     TIP3     H2       HT       0.417000        1.0080           0
     49366 WT4      2778     TIP3     OH2      OT      -0.834000       15.9994           0
     49367 WT4      2778     TIP3     H1       HT       0.417000        1.0080           0
     49368 WT4      2778     TIP3     H2       HT       0.417000        1.0080           0
     49369 WT4      2793     TIP3     OH2      OT      -0.834000       15.9994           0
     49370 WT4      2793     TIP3     H1       HT       0.417000        1.0080           0
     49371 WT4      2793     TIP3     H2       HT       0.417000        1.0080           0
     49372 WT4      2794     TIP3     OH2      OT      -0.834000       15.9994           0
     49373 WT4      2794     TIP3     H1       HT       0.417000        1.0080           0
     49374 WT4      2794     TIP3     H2       HT       0.417000        1.0080           0
     49375 WT4      2815     TIP3     OH2      OT      -0.834000       15.9994           0
     49376 WT4      2815     TIP3     H1       HT       0.417000        1.0080           0
     49377 WT4      2815     TIP3     H2       HT       0.417000        1.0080           0
     49378 WT4      2817     TIP3     OH2      OT      -0.834000       15.9994           0
     49379 WT4      2817     TIP3     H1       HT       0.417000        1.0080           0
     49380 WT4      2817     TIP3     H2       HT       0.417000        1.0080           0
     49381 WT4      2820     TIP3     OH2      OT      -0.834000       15.9994           0
     49382 WT4      2820     TIP3     H1       HT       0.417000        1.0080           0
     49383 WT4      2820     TIP3     H2       HT       0.417000        1.0080           0
     49384 WT4      2821     TIP3     OH2      OT      -0.834000       15.9994           0
     49385 WT4      2821     TIP3     H1       HT       0.417000        1.0080           0
     49386 WT4      2821     TIP3     H2       HT       0.417000        1.0080           0
     49387 WT4      3010     TIP3     OH2      OT      -0.834000       15.9994           0
     49388 WT4      3010     TIP3     H1       HT       0.417000        1.0080           0
     49389 WT4      3010     TIP3     H2       HT       0.417000        1.0080           0
     49390 WT4      3012     TIP3     OH2      OT      -0.834000       15.9994           0
     49391 WT4      3012     TIP3     H1       HT       0.417000        1.0080           0
     49392 WT4      3012     TIP3     H2       HT       0.417000        1.0080           0
     49393 WT4      3027     TIP3     OH2      OT      -0.834000       15.9994           0
     49394 WT4      3027     TIP3     H1       HT       0.417000        1.0080           0
     49395 WT4      3027     TIP3     H2       HT       0.417000        1.0080           0
     49396 WT4      3030     TIP3     OH2      OT      -0.834000       15.9994           0
     49397 WT4      3030     TIP3     H1       HT       0.417000        1.0080           0
     49398 WT4      3030     TIP3     H2       HT       0.417000        1.0080           0
     49399 WT4      3046     TIP3     OH2      OT      -0.834000       15.9994           0
     49400 WT4      3046     TIP3     H1       HT       0.417000        1.0080           0
     49401 WT4      3046     TIP3     H2       HT       0.417000        1.0080           0
     49402 WT4      3049     TIP3     OH2      OT      -0.834000       15.9994           0
     49403 WT4      3049     TIP3     H1       HT       0.417000        1.0080           0
     49404 WT4      3049     TIP3     H2       HT       0.417000        1.0080           0
     49405 WT4      3050     TIP3     OH2      OT      -0.834000       15.9994           0
     49406 WT4      3050     TIP3     H1       HT       0.417000        1.0080           0
     49407 WT4      3050     TIP3     H2       HT       0.417000        1.0080           0
     49408 WT4      3068     TIP3     OH2      OT      -0.834000       15.9994           0
     49409 WT4      3068     TIP3     H1       HT       0.417000        1.0080           0
     49410 WT4      3068     TIP3     H2       HT       0.417000        1.0080           0
     49411 WT4      3072     TIP3     OH2      OT      -0.834000       15.9994           0
     49412 WT4      3072     TIP3     H1       HT       0.417000        1.0080           0
     49413 WT4      3072     TIP3     H2       HT       0.417000        1.0080           0
     49414 WT4      3073     TIP3     OH2      OT      -0.834000       15.9994           0
     49415 WT4      3073     TIP3     H1       HT       0.417000        1.0080           0
     49416 WT4      3073     TIP3     H2       HT       0.417000        1.0080           0
     49417 WT4      3085     TIP3     OH2      OT      -0.834000       15.9994           0
     49418 WT4      3085     TIP3     H1       HT       0.417000        1.0080           0
     49419 WT4      3085     TIP3     H2       HT       0.417000        1.0080           0
     49420 WT4      3086     TIP3     OH2      OT      -0.834000       15.9994           0
     49421 WT4      3086     TIP3     H1       HT       0.417000        1.0080           0
     49422 WT4      3086     TIP3     H2       HT       0.417000        1.0080           0
     49423 WT4      3091     TIP3     OH2      OT      -0.834000       15.9994           0
     49424 WT4      3091     TIP3     H1       HT       0.417000        1.0080           0
     49425 WT4      3091     TIP3     H2       HT       0.417000        1.0080           0
     49426 WT4      3092     TIP3     OH2      OT      -0.834000       15.9994           0
     49427 WT4      3092     TIP3     H1       HT       0.417000        1.0080           0
     49428 WT4      3092     TIP3     H2       HT       0.417000        1.0080           0
     49429 WT4      3095     TIP3     OH2      OT      -0.834000       15.9994           0
     49430 WT4      3095     TIP3     H1       HT       0.417000        1.0080           0
     49431 WT4      3095     TIP3     H2       HT       0.417000        1.0080           0
     49432 WT4      3096     TIP3     OH2      OT      -0.834000       15.9994           0
     49433 WT4      3096     TIP3     H1       HT       0.417000        1.0080           0
     49434 WT4      3096     TIP3     H2       HT       0.417000        1.0080           0
     49435 WT4      3097     TIP3     OH2      OT      -0.834000       15.9994           0
     49436 WT4      3097     TIP3     H1       HT       0.417000        1.0080           0
     49437 WT4      3097     TIP3     H2       HT       0.417000        1.0080           0
     49438 WT4      3108     TIP3     OH2      OT      -0.834000       15.9994           0
     49439 WT4      3108     TIP3     H1       HT       0.417000        1.0080           0
     49440 WT4      3108     TIP3     H2       HT       0.417000        1.0080           0
     49441 WT4      3109     TIP3     OH2      OT      -0.834000       15.9994           0
     49442 WT4      3109     TIP3     H1       HT       0.417000        1.0080           0
     49443 WT4      3109     TIP3     H2       HT       0.417000        1.0080           0
     49444 WT4      3111     TIP3     OH2      OT      -0.834000       15.9994           0
     49445 WT4      3111     TIP3     H1       HT       0.417000        1.0080           0
     49446 WT4      3111     TIP3     H2       HT       0.417000        1.0080           0
     49447 WT4      3112     TIP3     OH2      OT      -0.834000       15.9994           0
     49448 WT4      3112     TIP3     H1       HT       0.417000        1.0080           0
     49449 WT4      3112     TIP3     H2       HT       0.417000        1.0080           0
     49450 WT4      3113     TIP3     OH2      OT      -0.834000       15.9994           0
     49451 WT4      3113     TIP3     H1       HT       0.417000        1.0080           0
     49452 WT4      3113     TIP3     H2       HT       0.417000        1.0080           0
     49453 WT4      3114     TIP3     OH2      OT      -0.834000       15.9994           0
     49454 WT4      3114     TIP3     H1       HT       0.417000        1.0080           0
     49455 WT4      3114     TIP3     H2       HT       0.417000        1.0080           0
     49456 WT4      3115     TIP3     OH2      OT      -0.834000       15.9994           0
     49457 WT4      3115     TIP3     H1       HT       0.417000        1.0080           0
     49458 WT4      3115     TIP3     H2       HT       0.417000        1.0080           0
     49459 WT4      3116     TIP3     OH2      OT      -0.834000       15.9994           0
     49460 WT4      3116     TIP3     H1       HT       0.417000        1.0080           0
     49461 WT4      3116     TIP3     H2       HT       0.417000        1.0080           0
     49462 WT4      3129     TIP3     OH2      OT      -0.834000       15.9994           0
     49463 WT4      3129     TIP3     H1       HT       0.417000        1.0080           0
     49464 WT4      3129     TIP3     H2       HT       0.417000        1.0080           0
     49465 WT4      3131     TIP3     OH2      OT      -0.834000       15.9994           0
     49466 WT4      3131     TIP3     H1       HT       0.417000        1.0080           0
     49467 WT4      3131     TIP3     H2       HT       0.417000        1.0080           0
     49468 WT4      3133     TIP3     OH2      OT      -0.834000       15.9994           0
     49469 WT4      3133     TIP3     H1       HT       0.417000        1.0080           0
     49470 WT4      3133     TIP3     H2       HT       0.417000        1.0080           0
     49471 WT4      3134     TIP3     OH2      OT      -0.834000       15.9994           0
     49472 WT4      3134     TIP3     H1       HT       0.417000        1.0080           0
     49473 WT4      3134     TIP3     H2       HT       0.417000        1.0080           0
     49474 WT4      3138     TIP3     OH2      OT      -0.834000       15.9994           0
     49475 WT4      3138     TIP3     H1       HT       0.417000        1.0080           0
     49476 WT4      3138     TIP3     H2       HT       0.417000        1.0080           0
     49477 WT4      3140     TIP3     OH2      OT      -0.834000       15.9994           0
     49478 WT4      3140     TIP3     H1       HT       0.417000        1.0080           0
     49479 WT4      3140     TIP3     H2       HT       0.417000        1.0080           0
     49480 WT4      3150     TIP3     OH2      OT      -0.834000       15.9994           0
     49481 WT4      3150     TIP3     H1       HT       0.417000        1.0080           0
     49482 WT4      3150     TIP3     H2       HT       0.417000        1.0080           0
     49483 WT4      3151     TIP3     OH2      OT      -0.834000       15.9994           0
     49484 WT4      3151     TIP3     H1       HT       0.417000        1.0080           0
     49485 WT4      3151     TIP3     H2       HT       0.417000        1.0080           0
     49486 WT4      3152     TIP3     OH2      OT      -0.834000       15.9994           0
     49487 WT4      3152     TIP3     H1       HT       0.417000        1.0080           0
     49488 WT4      3152     TIP3     H2       HT       0.417000        1.0080           0
     49489 WT4      3154     TIP3     OH2      OT      -0.834000       15.9994           0
     49490 WT4      3154     TIP3     H1       HT       0.417000        1.0080           0
     49491 WT4      3154     TIP3     H2       HT       0.417000        1.0080           0
     49492 WT4      3162     TIP3     OH2      OT      -0.834000       15.9994           0
     49493 WT4      3162     TIP3     H1       HT       0.417000        1.0080           0
     49494 WT4      3162     TIP3     H2       HT       0.417000        1.0080           0
     49495 WT4      3173     TIP3     OH2      OT      -0.834000       15.9994           0
     49496 WT4      3173     TIP3     H1       HT       0.417000        1.0080           0
     49497 WT4      3173     TIP3     H2       HT       0.417000        1.0080           0
     49498 WT4      3174     TIP3     OH2      OT      -0.834000       15.9994           0
     49499 WT4      3174     TIP3     H1       HT       0.417000        1.0080           0
     49500 WT4      3174     TIP3     H2       HT       0.417000        1.0080           0
     49501 WT4      3176     TIP3     OH2      OT      -0.834000       15.9994           0
     49502 WT4      3176     TIP3     H1       HT       0.417000        1.0080           0
     49503 WT4      3176     TIP3     H2       HT       0.417000        1.0080           0
     49504 WT4      3177     TIP3     OH2      OT      -0.834000       15.9994           0
     49505 WT4      3177     TIP3     H1       HT       0.417000        1.0080           0
     49506 WT4      3177     TIP3     H2       HT       0.417000        1.0080           0
     49507 WT4      3180     TIP3     OH2      OT      -0.834000       15.9994           0
     49508 WT4      3180     TIP3     H1       HT       0.417000        1.0080           0
     49509 WT4      3180     TIP3     H2       HT       0.417000        1.0080           0
     49510 WT4      3187     TIP3     OH2      OT      -0.834000       15.9994           0
     49511 WT4      3187     TIP3     H1       HT       0.417000        1.0080           0
     49512 WT4      3187     TIP3     H2       HT       0.417000        1.0080           0
     49513 WT4      3192     TIP3     OH2      OT      -0.834000       15.9994           0
     49514 WT4      3192     TIP3     H1       HT       0.417000        1.0080           0
     49515 WT4      3192     TIP3     H2       HT       0.417000        1.0080           0
     49516 WT4      3196     TIP3     OH2      OT      -0.834000       15.9994           0
     49517 WT4      3196     TIP3     H1       HT       0.417000        1.0080           0
     49518 WT4      3196     TIP3     H2       HT       0.417000        1.0080           0
     49519 WT4      3198     TIP3     OH2      OT      -0.834000       15.9994           0
     49520 WT4      3198     TIP3     H1       HT       0.417000        1.0080           0
     49521 WT4      3198     TIP3     H2       HT       0.417000        1.0080           0
     49522 WT4      3200     TIP3     OH2      OT      -0.834000       15.9994           0
     49523 WT4      3200     TIP3     H1       HT       0.417000        1.0080           0
     49524 WT4      3200     TIP3     H2       HT       0.417000        1.0080           0
     49525 WT4      3202     TIP3     OH2      OT      -0.834000       15.9994           0
     49526 WT4      3202     TIP3     H1       HT       0.417000        1.0080           0
     49527 WT4      3202     TIP3     H2       HT       0.417000        1.0080           0
     49528 WT4      3214     TIP3     OH2      OT      -0.834000       15.9994           0
     49529 WT4      3214     TIP3     H1       HT       0.417000        1.0080           0
     49530 WT4      3214     TIP3     H2       HT       0.417000        1.0080           0
     49531 WT4      3215     TIP3     OH2      OT      -0.834000       15.9994           0
     49532 WT4      3215     TIP3     H1       HT       0.417000        1.0080           0
     49533 WT4      3215     TIP3     H2       HT       0.417000        1.0080           0
     49534 WT4      3218     TIP3     OH2      OT      -0.834000       15.9994           0
     49535 WT4      3218     TIP3     H1       HT       0.417000        1.0080           0
     49536 WT4      3218     TIP3     H2       HT       0.417000        1.0080           0
     49537 WT4      3219     TIP3     OH2      OT      -0.834000       15.9994           0
     49538 WT4      3219     TIP3     H1       HT       0.417000        1.0080           0
     49539 WT4      3219     TIP3     H2       HT       0.417000        1.0080           0
     49540 WT4      3223     TIP3     OH2      OT      -0.834000       15.9994           0
     49541 WT4      3223     TIP3     H1       HT       0.417000        1.0080           0
     49542 WT4      3223     TIP3     H2       HT       0.417000        1.0080           0
     49543 WT4      3234     TIP3     OH2      OT      -0.834000       15.9994           0
     49544 WT4      3234     TIP3     H1       HT       0.417000        1.0080           0
     49545 WT4      3234     TIP3     H2       HT       0.417000        1.0080           0
     49546 WT4      3237     TIP3     OH2      OT      -0.834000       15.9994           0
     49547 WT4      3237     TIP3     H1       HT       0.417000        1.0080           0
     49548 WT4      3237     TIP3     H2       HT       0.417000        1.0080           0
     49549 WT4      3242     TIP3     OH2      OT      -0.834000       15.9994           0
     49550 WT4      3242     TIP3     H1       HT       0.417000        1.0080           0
     49551 WT4      3242     TIP3     H2       HT       0.417000        1.0080           0
     49552 WT4      3244     TIP3     OH2      OT      -0.834000       15.9994           0
     49553 WT4      3244     TIP3     H1       HT       0.417000        1.0080           0
     49554 WT4      3244     TIP3     H2       HT       0.417000        1.0080           0
     49555 WT4      3258     TIP3     OH2      OT      -0.834000       15.9994           0
     49556 WT4      3258     TIP3     H1       HT       0.417000        1.0080           0
     49557 WT4      3258     TIP3     H2       HT       0.417000        1.0080           0
     49558 WT4      3262     TIP3     OH2      OT      -0.834000       15.9994           0
     49559 WT4      3262     TIP3     H1       HT       0.417000        1.0080           0
     49560 WT4      3262     TIP3     H2       HT       0.417000        1.0080           0
     49561 WT4      3274     TIP3     OH2      OT      -0.834000       15.9994           0
     49562 WT4      3274     TIP3     H1       HT       0.417000        1.0080           0
     49563 WT4      3274     TIP3     H2       HT       0.417000        1.0080           0
     49564 WT4      3275     TIP3     OH2      OT      -0.834000       15.9994           0
     49565 WT4      3275     TIP3     H1       HT       0.417000        1.0080           0
     49566 WT4      3275     TIP3     H2       HT       0.417000        1.0080           0
     49567 WT4      3280     TIP3     OH2      OT      -0.834000       15.9994           0
     49568 WT4      3280     TIP3     H1       HT       0.417000        1.0080           0
     49569 WT4      3280     TIP3     H2       HT       0.417000        1.0080           0
     49570 WT4      3296     TIP3     OH2      OT      -0.834000       15.9994           0
     49571 WT4      3296     TIP3     H1       HT       0.417000        1.0080           0
     49572 WT4      3296     TIP3     H2       HT       0.417000        1.0080           0
     49573 WT4      3303     TIP3     OH2      OT      -0.834000       15.9994           0
     49574 WT4      3303     TIP3     H1       HT       0.417000        1.0080           0
     49575 WT4      3303     TIP3     H2       HT       0.417000        1.0080           0
     49576 WT4      3304     TIP3     OH2      OT      -0.834000       15.9994           0
     49577 WT4      3304     TIP3     H1       HT       0.417000        1.0080           0
     49578 WT4      3304     TIP3     H2       HT       0.417000        1.0080           0
     49579 WT4      3426     TIP3     OH2      OT      -0.834000       15.9994           0
     49580 WT4      3426     TIP3     H1       HT       0.417000        1.0080           0
     49581 WT4      3426     TIP3     H2       HT       0.417000        1.0080           0
     49582 WT4      3442     TIP3     OH2      OT      -0.834000       15.9994           0
     49583 WT4      3442     TIP3     H1       HT       0.417000        1.0080           0
     49584 WT4      3442     TIP3     H2       HT       0.417000        1.0080           0
     49585 WT4      3447     TIP3     OH2      OT      -0.834000       15.9994           0
     49586 WT4      3447     TIP3     H1       HT       0.417000        1.0080           0
     49587 WT4      3447     TIP3     H2       HT       0.417000        1.0080           0
     49588 WT4      3476     TIP3     OH2      OT      -0.834000       15.9994           0
     49589 WT4      3476     TIP3     H1       HT       0.417000        1.0080           0
     49590 WT4      3476     TIP3     H2       HT       0.417000        1.0080           0
     49591 WT4      3484     TIP3     OH2      OT      -0.834000       15.9994           0
     49592 WT4      3484     TIP3     H1       HT       0.417000        1.0080           0
     49593 WT4      3484     TIP3     H2       HT       0.417000        1.0080           0
     49594 WT4      3511     TIP3     OH2      OT      -0.834000       15.9994           0
     49595 WT4      3511     TIP3     H1       HT       0.417000        1.0080           0
     49596 WT4      3511     TIP3     H2       HT       0.417000        1.0080           0
     49597 WT4      3513     TIP3     OH2      OT      -0.834000       15.9994           0
     49598 WT4      3513     TIP3     H1       HT       0.417000        1.0080           0
     49599 WT4      3513     TIP3     H2       HT       0.417000        1.0080           0
     49600 WT4      3514     TIP3     OH2      OT      -0.834000       15.9994           0
     49601 WT4      3514     TIP3     H1       HT       0.417000        1.0080           0
     49602 WT4      3514     TIP3     H2       HT       0.417000        1.0080           0
     49603 WT4      3526     TIP3     OH2      OT      -0.834000       15.9994           0
     49604 WT4      3526     TIP3     H1       HT       0.417000        1.0080           0
     49605 WT4      3526     TIP3     H2       HT       0.417000        1.0080           0
     49606 WT4      3527     TIP3     OH2      OT      -0.834000       15.9994           0
     49607 WT4      3527     TIP3     H1       HT       0.417000        1.0080           0
     49608 WT4      3527     TIP3     H2       HT       0.417000        1.0080           0
     49609 WT4      3533     TIP3     OH2      OT      -0.834000       15.9994           0
     49610 WT4      3533     TIP3     H1       HT       0.417000        1.0080           0
     49611 WT4      3533     TIP3     H2       HT       0.417000        1.0080           0
     49612 WT4      3534     TIP3     OH2      OT      -0.834000       15.9994           0
     49613 WT4      3534     TIP3     H1       HT       0.417000        1.0080           0
     49614 WT4      3534     TIP3     H2       HT       0.417000        1.0080           0
     49615 WT4      3545     TIP3     OH2      OT      -0.834000       15.9994           0
     49616 WT4      3545     TIP3     H1       HT       0.417000        1.0080           0
     49617 WT4      3545     TIP3     H2       HT       0.417000        1.0080           0
     49618 WT4      3548     TIP3     OH2      OT      -0.834000       15.9994           0
     49619 WT4      3548     TIP3     H1       HT       0.417000        1.0080           0
     49620 WT4      3548     TIP3     H2       HT       0.417000        1.0080           0
     49621 WT4      3554     TIP3     OH2      OT      -0.834000       15.9994           0
     49622 WT4      3554     TIP3     H1       HT       0.417000        1.0080           0
     49623 WT4      3554     TIP3     H2       HT       0.417000        1.0080           0
     49624 WT4      3555     TIP3     OH2      OT      -0.834000       15.9994           0
     49625 WT4      3555     TIP3     H1       HT       0.417000        1.0080           0
     49626 WT4      3555     TIP3     H2       HT       0.417000        1.0080           0
     49627 WT4      3569     TIP3     OH2      OT      -0.834000       15.9994           0
     49628 WT4      3569     TIP3     H1       HT       0.417000        1.0080           0
     49629 WT4      3569     TIP3     H2       HT       0.417000        1.0080           0
     49630 WT4      3573     TIP3     OH2      OT      -0.834000       15.9994           0
     49631 WT4      3573     TIP3     H1       HT       0.417000        1.0080           0
     49632 WT4      3573     TIP3     H2       HT       0.417000        1.0080           0
     49633 WT4      3575     TIP3     OH2      OT      -0.834000       15.9994           0
     49634 WT4      3575     TIP3     H1       HT       0.417000        1.0080           0
     49635 WT4      3575     TIP3     H2       HT       0.417000        1.0080           0
     49636 WT4      3593     TIP3     OH2      OT      -0.834000       15.9994           0
     49637 WT4      3593     TIP3     H1       HT       0.417000        1.0080           0
     49638 WT4      3593     TIP3     H2       HT       0.417000        1.0080           0
     49639 WT4      3595     TIP3     OH2      OT      -0.834000       15.9994           0
     49640 WT4      3595     TIP3     H1       HT       0.417000        1.0080           0
     49641 WT4      3595     TIP3     H2       HT       0.417000        1.0080           0
     49642 WT4      3596     TIP3     OH2      OT      -0.834000       15.9994           0
     49643 WT4      3596     TIP3     H1       HT       0.417000        1.0080           0
     49644 WT4      3596     TIP3     H2       HT       0.417000        1.0080           0
     49645 WT4      3597     TIP3     OH2      OT      -0.834000       15.9994           0
     49646 WT4      3597     TIP3     H1       HT       0.417000        1.0080           0
     49647 WT4      3597     TIP3     H2       HT       0.417000        1.0080           0
     49648 WT4      3599     TIP3     OH2      OT      -0.834000       15.9994           0
     49649 WT4      3599     TIP3     H1       HT       0.417000        1.0080           0
     49650 WT4      3599     TIP3     H2       HT       0.417000        1.0080           0
     49651 WT4      3612     TIP3     OH2      OT      -0.834000       15.9994           0
     49652 WT4      3612     TIP3     H1       HT       0.417000        1.0080           0
     49653 WT4      3612     TIP3     H2       HT       0.417000        1.0080           0
     49654 WT4      3615     TIP3     OH2      OT      -0.834000       15.9994           0
     49655 WT4      3615     TIP3     H1       HT       0.417000        1.0080           0
     49656 WT4      3615     TIP3     H2       HT       0.417000        1.0080           0
     49657 WT4      3619     TIP3     OH2      OT      -0.834000       15.9994           0
     49658 WT4      3619     TIP3     H1       HT       0.417000        1.0080           0
     49659 WT4      3619     TIP3     H2       HT       0.417000        1.0080           0
     49660 WT4      3623     TIP3     OH2      OT      -0.834000       15.9994           0
     49661 WT4      3623     TIP3     H1       HT       0.417000        1.0080           0
     49662 WT4      3623     TIP3     H2       HT       0.417000        1.0080           0
     49663 WT4      3633     TIP3     OH2      OT      -0.834000       15.9994           0
     49664 WT4      3633     TIP3     H1       HT       0.417000        1.0080           0
     49665 WT4      3633     TIP3     H2       HT       0.417000        1.0080           0
     49666 WT4      3636     TIP3     OH2      OT      -0.834000       15.9994           0
     49667 WT4      3636     TIP3     H1       HT       0.417000        1.0080           0
     49668 WT4      3636     TIP3     H2       HT       0.417000        1.0080           0
     49669 WT4      3639     TIP3     OH2      OT      -0.834000       15.9994           0
     49670 WT4      3639     TIP3     H1       HT       0.417000        1.0080           0
     49671 WT4      3639     TIP3     H2       HT       0.417000        1.0080           0
     49672 WT4      3641     TIP3     OH2      OT      -0.834000       15.9994           0
     49673 WT4      3641     TIP3     H1       HT       0.417000        1.0080           0
     49674 WT4      3641     TIP3     H2       HT       0.417000        1.0080           0
     49675 WT4      3650     TIP3     OH2      OT      -0.834000       15.9994           0
     49676 WT4      3650     TIP3     H1       HT       0.417000        1.0080           0
     49677 WT4      3650     TIP3     H2       HT       0.417000        1.0080           0
     49678 WT4      3651     TIP3     OH2      OT      -0.834000       15.9994           0
     49679 WT4      3651     TIP3     H1       HT       0.417000        1.0080           0
     49680 WT4      3651     TIP3     H2       HT       0.417000        1.0080           0
     49681 WT4      3653     TIP3     OH2      OT      -0.834000       15.9994           0
     49682 WT4      3653     TIP3     H1       HT       0.417000        1.0080           0
     49683 WT4      3653     TIP3     H2       HT       0.417000        1.0080           0
     49684 WT4      3657     TIP3     OH2      OT      -0.834000       15.9994           0
     49685 WT4      3657     TIP3     H1       HT       0.417000        1.0080           0
     49686 WT4      3657     TIP3     H2       HT       0.417000        1.0080           0
     49687 WT4      3658     TIP3     OH2      OT      -0.834000       15.9994           0
     49688 WT4      3658     TIP3     H1       HT       0.417000        1.0080           0
     49689 WT4      3658     TIP3     H2       HT       0.417000        1.0080           0
     49690 WT4      3660     TIP3     OH2      OT      -0.834000       15.9994           0
     49691 WT4      3660     TIP3     H1       HT       0.417000        1.0080           0
     49692 WT4      3660     TIP3     H2       HT       0.417000        1.0080           0
     49693 WT4      3661     TIP3     OH2      OT      -0.834000       15.9994           0
     49694 WT4      3661     TIP3     H1       HT       0.417000        1.0080           0
     49695 WT4      3661     TIP3     H2       HT       0.417000        1.0080           0
     49696 WT4      3662     TIP3     OH2      OT      -0.834000       15.9994           0
     49697 WT4      3662     TIP3     H1       HT       0.417000        1.0080           0
     49698 WT4      3662     TIP3     H2       HT       0.417000        1.0080           0
     49699 WT4      3674     TIP3     OH2      OT      -0.834000       15.9994           0
     49700 WT4      3674     TIP3     H1       HT       0.417000        1.0080           0
     49701 WT4      3674     TIP3     H2       HT       0.417000        1.0080           0
     49702 WT4      3682     TIP3     OH2      OT      -0.834000       15.9994           0
     49703 WT4      3682     TIP3     H1       HT       0.417000        1.0080           0
     49704 WT4      3682     TIP3     H2       HT       0.417000        1.0080           0
     49705 WT4      3701     TIP3     OH2      OT      -0.834000       15.9994           0
     49706 WT4      3701     TIP3     H1       HT       0.417000        1.0080           0
     49707 WT4      3701     TIP3     H2       HT       0.417000        1.0080           0
     49708 WT4      3721     TIP3     OH2      OT      -0.834000       15.9994           0
     49709 WT4      3721     TIP3     H1       HT       0.417000        1.0080           0
     49710 WT4      3721     TIP3     H2       HT       0.417000        1.0080           0
     49711 WT4      3727     TIP3     OH2      OT      -0.834000       15.9994           0
     49712 WT4      3727     TIP3     H1       HT       0.417000        1.0080           0
     49713 WT4      3727     TIP3     H2       HT       0.417000        1.0080           0
     49714 WT4      3757     TIP3     OH2      OT      -0.834000       15.9994           0
     49715 WT4      3757     TIP3     H1       HT       0.417000        1.0080           0
     49716 WT4      3757     TIP3     H2       HT       0.417000        1.0080           0
     49717 WT4      3925     TIP3     OH2      OT      -0.834000       15.9994           0
     49718 WT4      3925     TIP3     H1       HT       0.417000        1.0080           0
     49719 WT4      3925     TIP3     H2       HT       0.417000        1.0080           0
     49720 WT4      3931     TIP3     OH2      OT      -0.834000       15.9994           0
     49721 WT4      3931     TIP3     H1       HT       0.417000        1.0080           0
     49722 WT4      3931     TIP3     H2       HT       0.417000        1.0080           0
     49723 WT4      3933     TIP3     OH2      OT      -0.834000       15.9994           0
     49724 WT4      3933     TIP3     H1       HT       0.417000        1.0080           0
     49725 WT4      3933     TIP3     H2       HT       0.417000        1.0080           0
     49726 WT4      3951     TIP3     OH2      OT      -0.834000       15.9994           0
     49727 WT4      3951     TIP3     H1       HT       0.417000        1.0080           0
     49728 WT4      3951     TIP3     H2       HT       0.417000        1.0080           0
     49729 WT4      3973     TIP3     OH2      OT      -0.834000       15.9994           0
     49730 WT4      3973     TIP3     H1       HT       0.417000        1.0080           0
     49731 WT4      3973     TIP3     H2       HT       0.417000        1.0080           0
     49732 WT4      3974     TIP3     OH2      OT      -0.834000       15.9994           0
     49733 WT4      3974     TIP3     H1       HT       0.417000        1.0080           0
     49734 WT4      3974     TIP3     H2       HT       0.417000        1.0080           0
     49735 WT4      3975     TIP3     OH2      OT      -0.834000       15.9994           0
     49736 WT4      3975     TIP3     H1       HT       0.417000        1.0080           0
     49737 WT4      3975     TIP3     H2       HT       0.417000        1.0080           0
     49738 WT4      3976     TIP3     OH2      OT      -0.834000       15.9994           0
     49739 WT4      3976     TIP3     H1       HT       0.417000        1.0080           0
     49740 WT4      3976     TIP3     H2       HT       0.417000        1.0080           0
     49741 WT4      3977     TIP3     OH2      OT      -0.834000       15.9994           0
     49742 WT4      3977     TIP3     H1       HT       0.417000        1.0080           0
     49743 WT4      3977     TIP3     H2       HT       0.417000        1.0080           0
     49744 WT4      3986     TIP3     OH2      OT      -0.834000       15.9994           0
     49745 WT4      3986     TIP3     H1       HT       0.417000        1.0080           0
     49746 WT4      3986     TIP3     H2       HT       0.417000        1.0080           0
     49747 WT4      3991     TIP3     OH2      OT      -0.834000       15.9994           0
     49748 WT4      3991     TIP3     H1       HT       0.417000        1.0080           0
     49749 WT4      3991     TIP3     H2       HT       0.417000        1.0080           0
     49750 WT4      3992     TIP3     OH2      OT      -0.834000       15.9994           0
     49751 WT4      3992     TIP3     H1       HT       0.417000        1.0080           0
     49752 WT4      3992     TIP3     H2       HT       0.417000        1.0080           0
     49753 WT4      3993     TIP3     OH2      OT      -0.834000       15.9994           0
     49754 WT4      3993     TIP3     H1       HT       0.417000        1.0080           0
     49755 WT4      3993     TIP3     H2       HT       0.417000        1.0080           0
     49756 WT4      3994     TIP3     OH2      OT      -0.834000       15.9994           0
     49757 WT4      3994     TIP3     H1       HT       0.417000        1.0080           0
     49758 WT4      3994     TIP3     H2       HT       0.417000        1.0080           0
     49759 WT4      3995     TIP3     OH2      OT      -0.834000       15.9994           0
     49760 WT4      3995     TIP3     H1       HT       0.417000        1.0080           0
     49761 WT4      3995     TIP3     H2       HT       0.417000        1.0080           0
     49762 WT4      3996     TIP3     OH2      OT      -0.834000       15.9994           0
     49763 WT4      3996     TIP3     H1       HT       0.417000        1.0080           0
     49764 WT4      3996     TIP3     H2       HT       0.417000        1.0080           0
     49765 WT4      4009     TIP3     OH2      OT      -0.834000       15.9994           0
     49766 WT4      4009     TIP3     H1       HT       0.417000        1.0080           0
     49767 WT4      4009     TIP3     H2       HT       0.417000        1.0080           0
     49768 WT4      4010     TIP3     OH2      OT      -0.834000       15.9994           0
     49769 WT4      4010     TIP3     H1       HT       0.417000        1.0080           0
     49770 WT4      4010     TIP3     H2       HT       0.417000        1.0080           0
     49771 WT4      4012     TIP3     OH2      OT      -0.834000       15.9994           0
     49772 WT4      4012     TIP3     H1       HT       0.417000        1.0080           0
     49773 WT4      4012     TIP3     H2       HT       0.417000        1.0080           0
     49774 WT4      4014     TIP3     OH2      OT      -0.834000       15.9994           0
     49775 WT4      4014     TIP3     H1       HT       0.417000        1.0080           0
     49776 WT4      4014     TIP3     H2       HT       0.417000        1.0080           0
     49777 WT4      4015     TIP3     OH2      OT      -0.834000       15.9994           0
     49778 WT4      4015     TIP3     H1       HT       0.417000        1.0080           0
     49779 WT4      4015     TIP3     H2       HT       0.417000        1.0080           0
     49780 WT4      4016     TIP3     OH2      OT      -0.834000       15.9994           0
     49781 WT4      4016     TIP3     H1       HT       0.417000        1.0080           0
     49782 WT4      4016     TIP3     H2       HT       0.417000        1.0080           0
     49783 WT4      4017     TIP3     OH2      OT      -0.834000       15.9994           0
     49784 WT4      4017     TIP3     H1       HT       0.417000        1.0080           0
     49785 WT4      4017     TIP3     H2       HT       0.417000        1.0080           0
     49786 WT4      4018     TIP3     OH2      OT      -0.834000       15.9994           0
     49787 WT4      4018     TIP3     H1       HT       0.417000        1.0080           0
     49788 WT4      4018     TIP3     H2       HT       0.417000        1.0080           0
     49789 WT4      4021     TIP3     OH2      OT      -0.834000       15.9994           0
     49790 WT4      4021     TIP3     H1       HT       0.417000        1.0080           0
     49791 WT4      4021     TIP3     H2       HT       0.417000        1.0080           0
     49792 WT4      4022     TIP3     OH2      OT      -0.834000       15.9994           0
     49793 WT4      4022     TIP3     H1       HT       0.417000        1.0080           0
     49794 WT4      4022     TIP3     H2       HT       0.417000        1.0080           0
     49795 WT4      4030     TIP3     OH2      OT      -0.834000       15.9994           0
     49796 WT4      4030     TIP3     H1       HT       0.417000        1.0080           0
     49797 WT4      4030     TIP3     H2       HT       0.417000        1.0080           0
     49798 WT4      4035     TIP3     OH2      OT      -0.834000       15.9994           0
     49799 WT4      4035     TIP3     H1       HT       0.417000        1.0080           0
     49800 WT4      4035     TIP3     H2       HT       0.417000        1.0080           0
     49801 WT4      4036     TIP3     OH2      OT      -0.834000       15.9994           0
     49802 WT4      4036     TIP3     H1       HT       0.417000        1.0080           0
     49803 WT4      4036     TIP3     H2       HT       0.417000        1.0080           0
     49804 WT4      4037     TIP3     OH2      OT      -0.834000       15.9994           0
     49805 WT4      4037     TIP3     H1       HT       0.417000        1.0080           0
     49806 WT4      4037     TIP3     H2       HT       0.417000        1.0080           0
     49807 WT4      4039     TIP3     OH2      OT      -0.834000       15.9994           0
     49808 WT4      4039     TIP3     H1       HT       0.417000        1.0080           0
     49809 WT4      4039     TIP3     H2       HT       0.417000        1.0080           0
     49810 WT4      4040     TIP3     OH2      OT      -0.834000       15.9994           0
     49811 WT4      4040     TIP3     H1       HT       0.417000        1.0080           0
     49812 WT4      4040     TIP3     H2       HT       0.417000        1.0080           0
     49813 WT4      4053     TIP3     OH2      OT      -0.834000       15.9994           0
     49814 WT4      4053     TIP3     H1       HT       0.417000        1.0080           0
     49815 WT4      4053     TIP3     H2       HT       0.417000        1.0080           0
     49816 WT4      4055     TIP3     OH2      OT      -0.834000       15.9994           0
     49817 WT4      4055     TIP3     H1       HT       0.417000        1.0080           0
     49818 WT4      4055     TIP3     H2       HT       0.417000        1.0080           0
     49819 WT4      4056     TIP3     OH2      OT      -0.834000       15.9994           0
     49820 WT4      4056     TIP3     H1       HT       0.417000        1.0080           0
     49821 WT4      4056     TIP3     H2       HT       0.417000        1.0080           0
     49822 WT4      4057     TIP3     OH2      OT      -0.834000       15.9994           0
     49823 WT4      4057     TIP3     H1       HT       0.417000        1.0080           0
     49824 WT4      4057     TIP3     H2       HT       0.417000        1.0080           0
     49825 WT4      4058     TIP3     OH2      OT      -0.834000       15.9994           0
     49826 WT4      4058     TIP3     H1       HT       0.417000        1.0080           0
     49827 WT4      4058     TIP3     H2       HT       0.417000        1.0080           0
     49828 WT4      4060     TIP3     OH2      OT      -0.834000       15.9994           0
     49829 WT4      4060     TIP3     H1       HT       0.417000        1.0080           0
     49830 WT4      4060     TIP3     H2       HT       0.417000        1.0080           0
     49831 WT4      4072     TIP3     OH2      OT      -0.834000       15.9994           0
     49832 WT4      4072     TIP3     H1       HT       0.417000        1.0080           0
     49833 WT4      4072     TIP3     H2       HT       0.417000        1.0080           0
     49834 WT4      4074     TIP3     OH2      OT      -0.834000       15.9994           0
     49835 WT4      4074     TIP3     H1       HT       0.417000        1.0080           0
     49836 WT4      4074     TIP3     H2       HT       0.417000        1.0080           0
     49837 WT4      4076     TIP3     OH2      OT      -0.834000       15.9994           0
     49838 WT4      4076     TIP3     H1       HT       0.417000        1.0080           0
     49839 WT4      4076     TIP3     H2       HT       0.417000        1.0080           0
     49840 WT4      4077     TIP3     OH2      OT      -0.834000       15.9994           0
     49841 WT4      4077     TIP3     H1       HT       0.417000        1.0080           0
     49842 WT4      4077     TIP3     H2       HT       0.417000        1.0080           0
     49843 WT4      4078     TIP3     OH2      OT      -0.834000       15.9994           0
     49844 WT4      4078     TIP3     H1       HT       0.417000        1.0080           0
     49845 WT4      4078     TIP3     H2       HT       0.417000        1.0080           0
     49846 WT4      4081     TIP3     OH2      OT      -0.834000       15.9994           0
     49847 WT4      4081     TIP3     H1       HT       0.417000        1.0080           0
     49848 WT4      4081     TIP3     H2       HT       0.417000        1.0080           0
     49849 WT4      4098     TIP3     OH2      OT      -0.834000       15.9994           0
     49850 WT4      4098     TIP3     H1       HT       0.417000        1.0080           0
     49851 WT4      4098     TIP3     H2       HT       0.417000        1.0080           0
     49852 WT4      4099     TIP3     OH2      OT      -0.834000       15.9994           0
     49853 WT4      4099     TIP3     H1       HT       0.417000        1.0080           0
     49854 WT4      4099     TIP3     H2       HT       0.417000        1.0080           0
     49855 WT4      4104     TIP3     OH2      OT      -0.834000       15.9994           0
     49856 WT4      4104     TIP3     H1       HT       0.417000        1.0080           0
     49857 WT4      4104     TIP3     H2       HT       0.417000        1.0080           0
     49858 WT4      4121     TIP3     OH2      OT      -0.834000       15.9994           0
     49859 WT4      4121     TIP3     H1       HT       0.417000        1.0080           0
     49860 WT4      4121     TIP3     H2       HT       0.417000        1.0080           0
     49861 WT4      4138     TIP3     OH2      OT      -0.834000       15.9994           0
     49862 WT4      4138     TIP3     H1       HT       0.417000        1.0080           0
     49863 WT4      4138     TIP3     H2       HT       0.417000        1.0080           0
     49864 WT4      4141     TIP3     OH2      OT      -0.834000       15.9994           0
     49865 WT4      4141     TIP3     H1       HT       0.417000        1.0080           0
     49866 WT4      4141     TIP3     H2       HT       0.417000        1.0080           0
     49867 WT4      4143     TIP3     OH2      OT      -0.834000       15.9994           0
     49868 WT4      4143     TIP3     H1       HT       0.417000        1.0080           0
     49869 WT4      4143     TIP3     H2       HT       0.417000        1.0080           0
     49870 WT4      4144     TIP3     OH2      OT      -0.834000       15.9994           0
     49871 WT4      4144     TIP3     H1       HT       0.417000        1.0080           0
     49872 WT4      4144     TIP3     H2       HT       0.417000        1.0080           0
     49873 WT4      4161     TIP3     OH2      OT      -0.834000       15.9994           0
     49874 WT4      4161     TIP3     H1       HT       0.417000        1.0080           0
     49875 WT4      4161     TIP3     H2       HT       0.417000        1.0080           0
     49876 WT4      4179     TIP3     OH2      OT      -0.834000       15.9994           0
     49877 WT4      4179     TIP3     H1       HT       0.417000        1.0080           0
     49878 WT4      4179     TIP3     H2       HT       0.417000        1.0080           0
     49879 WT4      4186     TIP3     OH2      OT      -0.834000       15.9994           0
     49880 WT4      4186     TIP3     H1       HT       0.417000        1.0080           0
     49881 WT4      4186     TIP3     H2       HT       0.417000        1.0080           0
     49882 WT4      4201     TIP3     OH2      OT      -0.834000       15.9994           0
     49883 WT4      4201     TIP3     H1       HT       0.417000        1.0080           0
     49884 WT4      4201     TIP3     H2       HT       0.417000        1.0080           0
     49885 WT4      4202     TIP3     OH2      OT      -0.834000       15.9994           0
     49886 WT4      4202     TIP3     H1       HT       0.417000        1.0080           0
     49887 WT4      4202     TIP3     H2       HT       0.417000        1.0080           0
     49888 WT4      4356     TIP3     OH2      OT      -0.834000       15.9994           0
     49889 WT4      4356     TIP3     H1       HT       0.417000        1.0080           0
     49890 WT4      4356     TIP3     H2       HT       0.417000        1.0080           0
     49891 WT4      4374     TIP3     OH2      OT      -0.834000       15.9994           0
     49892 WT4      4374     TIP3     H1       HT       0.417000        1.0080           0
     49893 WT4      4374     TIP3     H2       HT       0.417000        1.0080           0
     49894 WT4      4394     TIP3     OH2      OT      -0.834000       15.9994           0
     49895 WT4      4394     TIP3     H1       HT       0.417000        1.0080           0
     49896 WT4      4394     TIP3     H2       HT       0.417000        1.0080           0
     49897 WT4      4414     TIP3     OH2      OT      -0.834000       15.9994           0
     49898 WT4      4414     TIP3     H1       HT       0.417000        1.0080           0
     49899 WT4      4414     TIP3     H2       HT       0.417000        1.0080           0
     49900 WT4      4417     TIP3     OH2      OT      -0.834000       15.9994           0
     49901 WT4      4417     TIP3     H1       HT       0.417000        1.0080           0
     49902 WT4      4417     TIP3     H2       HT       0.417000        1.0080           0
     49903 WT4      4419     TIP3     OH2      OT      -0.834000       15.9994           0
     49904 WT4      4419     TIP3     H1       HT       0.417000        1.0080           0
     49905 WT4      4419     TIP3     H2       HT       0.417000        1.0080           0
     49906 WT4      4432     TIP3     OH2      OT      -0.834000       15.9994           0
     49907 WT4      4432     TIP3     H1       HT       0.417000        1.0080           0
     49908 WT4      4432     TIP3     H2       HT       0.417000        1.0080           0
     49909 WT4      4434     TIP3     OH2      OT      -0.834000       15.9994           0
     49910 WT4      4434     TIP3     H1       HT       0.417000        1.0080           0
     49911 WT4      4434     TIP3     H2       HT       0.417000        1.0080           0
     49912 WT4      4437     TIP3     OH2      OT      -0.834000       15.9994           0
     49913 WT4      4437     TIP3     H1       HT       0.417000        1.0080           0
     49914 WT4      4437     TIP3     H2       HT       0.417000        1.0080           0
     49915 WT4      4438     TIP3     OH2      OT      -0.834000       15.9994           0
     49916 WT4      4438     TIP3     H1       HT       0.417000        1.0080           0
     49917 WT4      4438     TIP3     H2       HT       0.417000        1.0080           0
     49918 WT4      4453     TIP3     OH2      OT      -0.834000       15.9994           0
     49919 WT4      4453     TIP3     H1       HT       0.417000        1.0080           0
     49920 WT4      4453     TIP3     H2       HT       0.417000        1.0080           0
     49921 WT4      4455     TIP3     OH2      OT      -0.834000       15.9994           0
     49922 WT4      4455     TIP3     H1       HT       0.417000        1.0080           0
     49923 WT4      4455     TIP3     H2       HT       0.417000        1.0080           0
     49924 WT4      4461     TIP3     OH2      OT      -0.834000       15.9994           0
     49925 WT4      4461     TIP3     H1       HT       0.417000        1.0080           0
     49926 WT4      4461     TIP3     H2       HT       0.417000        1.0080           0
     49927 WT4      4473     TIP3     OH2      OT      -0.834000       15.9994           0
     49928 WT4      4473     TIP3     H1       HT       0.417000        1.0080           0
     49929 WT4      4473     TIP3     H2       HT       0.417000        1.0080           0
     49930 WT4      4477     TIP3     OH2      OT      -0.834000       15.9994           0
     49931 WT4      4477     TIP3     H1       HT       0.417000        1.0080           0
     49932 WT4      4477     TIP3     H2       HT       0.417000        1.0080           0
     49933 WT4      4478     TIP3     OH2      OT      -0.834000       15.9994           0
     49934 WT4      4478     TIP3     H1       HT       0.417000        1.0080           0
     49935 WT4      4478     TIP3     H2       HT       0.417000        1.0080           0
     49936 WT4      4479     TIP3     OH2      OT      -0.834000       15.9994           0
     49937 WT4      4479     TIP3     H1       HT       0.417000        1.0080           0
     49938 WT4      4479     TIP3     H2       HT       0.417000        1.0080           0
     49939 WT4      4480     TIP3     OH2      OT      -0.834000       15.9994           0
     49940 WT4      4480     TIP3     H1       HT       0.417000        1.0080           0
     49941 WT4      4480     TIP3     H2       HT       0.417000        1.0080           0
     49942 WT4      4496     TIP3     OH2      OT      -0.834000       15.9994           0
     49943 WT4      4496     TIP3     H1       HT       0.417000        1.0080           0
     49944 WT4      4496     TIP3     H2       HT       0.417000        1.0080           0
     49945 WT4      4499     TIP3     OH2      OT      -0.834000       15.9994           0
     49946 WT4      4499     TIP3     H1       HT       0.417000        1.0080           0
     49947 WT4      4499     TIP3     H2       HT       0.417000        1.0080           0
     49948 WT4      4500     TIP3     OH2      OT      -0.834000       15.9994           0
     49949 WT4      4500     TIP3     H1       HT       0.417000        1.0080           0
     49950 WT4      4500     TIP3     H2       HT       0.417000        1.0080           0
     49951 WT4      4501     TIP3     OH2      OT      -0.834000       15.9994           0
     49952 WT4      4501     TIP3     H1       HT       0.417000        1.0080           0
     49953 WT4      4501     TIP3     H2       HT       0.417000        1.0080           0
     49954 WT4      4513     TIP3     OH2      OT      -0.834000       15.9994           0
     49955 WT4      4513     TIP3     H1       HT       0.417000        1.0080           0
     49956 WT4      4513     TIP3     H2       HT       0.417000        1.0080           0
     49957 WT4      4515     TIP3     OH2      OT      -0.834000       15.9994           0
     49958 WT4      4515     TIP3     H1       HT       0.417000        1.0080           0
     49959 WT4      4515     TIP3     H2       HT       0.417000        1.0080           0
     49960 WT4      4517     TIP3     OH2      OT      -0.834000       15.9994           0
     49961 WT4      4517     TIP3     H1       HT       0.417000        1.0080           0
     49962 WT4      4517     TIP3     H2       HT       0.417000        1.0080           0
     49963 WT4      4519     TIP3     OH2      OT      -0.834000       15.9994           0
     49964 WT4      4519     TIP3     H1       HT       0.417000        1.0080           0
     49965 WT4      4519     TIP3     H2       HT       0.417000        1.0080           0
     49966 WT4      4520     TIP3     OH2      OT      -0.834000       15.9994           0
     49967 WT4      4520     TIP3     H1       HT       0.417000        1.0080           0
     49968 WT4      4520     TIP3     H2       HT       0.417000        1.0080           0
     49969 WT4      4523     TIP3     OH2      OT      -0.834000       15.9994           0
     49970 WT4      4523     TIP3     H1       HT       0.417000        1.0080           0
     49971 WT4      4523     TIP3     H2       HT       0.417000        1.0080           0
     49972 WT4      4524     TIP3     OH2      OT      -0.834000       15.9994           0
     49973 WT4      4524     TIP3     H1       HT       0.417000        1.0080           0
     49974 WT4      4524     TIP3     H2       HT       0.417000        1.0080           0
     49975 WT4      4536     TIP3     OH2      OT      -0.834000       15.9994           0
     49976 WT4      4536     TIP3     H1       HT       0.417000        1.0080           0
     49977 WT4      4536     TIP3     H2       HT       0.417000        1.0080           0
     49978 WT4      4537     TIP3     OH2      OT      -0.834000       15.9994           0
     49979 WT4      4537     TIP3     H1       HT       0.417000        1.0080           0
     49980 WT4      4537     TIP3     H2       HT       0.417000        1.0080           0
     49981 WT4      4538     TIP3     OH2      OT      -0.834000       15.9994           0
     49982 WT4      4538     TIP3     H1       HT       0.417000        1.0080           0
     49983 WT4      4538     TIP3     H2       HT       0.417000        1.0080           0
     49984 WT4      4539     TIP3     OH2      OT      -0.834000       15.9994           0
     49985 WT4      4539     TIP3     H1       HT       0.417000        1.0080           0
     49986 WT4      4539     TIP3     H2       HT       0.417000        1.0080           0
     49987 WT4      4544     TIP3     OH2      OT      -0.834000       15.9994           0
     49988 WT4      4544     TIP3     H1       HT       0.417000        1.0080           0
     49989 WT4      4544     TIP3     H2       HT       0.417000        1.0080           0
     49990 WT4      4558     TIP3     OH2      OT      -0.834000       15.9994           0
     49991 WT4      4558     TIP3     H1       HT       0.417000        1.0080           0
     49992 WT4      4558     TIP3     H2       HT       0.417000        1.0080           0
     49993 WT4      4561     TIP3     OH2      OT      -0.834000       15.9994           0
     49994 WT4      4561     TIP3     H1       HT       0.417000        1.0080           0
     49995 WT4      4561     TIP3     H2       HT       0.417000        1.0080           0
     49996 WT4      4562     TIP3     OH2      OT      -0.834000       15.9994           0
     49997 WT4      4562     TIP3     H1       HT       0.417000        1.0080           0
     49998 WT4      4562     TIP3     H2       HT       0.417000        1.0080           0
     49999 WT4      4569     TIP3     OH2      OT      -0.834000       15.9994           0
     50000 WT4      4569     TIP3     H1       HT       0.417000        1.0080           0
     50001 WT4      4569     TIP3     H2       HT       0.417000        1.0080           0
     50002 WT4      4581     TIP3     OH2      OT      -0.834000       15.9994           0
     50003 WT4      4581     TIP3     H1       HT       0.417000        1.0080           0
     50004 WT4      4581     TIP3     H2       HT       0.417000        1.0080           0
     50005 WT4      4582     TIP3     OH2      OT      -0.834000       15.9994           0
     50006 WT4      4582     TIP3     H1       HT       0.417000        1.0080           0
     50007 WT4      4582     TIP3     H2       HT       0.417000        1.0080           0
     50008 WT4      4586     TIP3     OH2      OT      -0.834000       15.9994           0
     50009 WT4      4586     TIP3     H1       HT       0.417000        1.0080           0
     50010 WT4      4586     TIP3     H2       HT       0.417000        1.0080           0
     50011 WT4      4588     TIP3     OH2      OT      -0.834000       15.9994           0
     50012 WT4      4588     TIP3     H1       HT       0.417000        1.0080           0
     50013 WT4      4588     TIP3     H2       HT       0.417000        1.0080           0
     50014 WT4      4606     TIP3     OH2      OT      -0.834000       15.9994           0
     50015 WT4      4606     TIP3     H1       HT       0.417000        1.0080           0
     50016 WT4      4606     TIP3     H2       HT       0.417000        1.0080           0
     50017 WT4      4624     TIP3     OH2      OT      -0.834000       15.9994           0
     50018 WT4      4624     TIP3     H1       HT       0.417000        1.0080           0
     50019 WT4      4624     TIP3     H2       HT       0.417000        1.0080           0
     50020 WT4      4797     TIP3     OH2      OT      -0.834000       15.9994           0
     50021 WT4      4797     TIP3     H1       HT       0.417000        1.0080           0
     50022 WT4      4797     TIP3     H2       HT       0.417000        1.0080           0
     50023 WT4      4798     TIP3     OH2      OT      -0.834000       15.9994           0
     50024 WT4      4798     TIP3     H1       HT       0.417000        1.0080           0
     50025 WT4      4798     TIP3     H2       HT       0.417000        1.0080           0
     50026 WT4      4808     TIP3     OH2      OT      -0.834000       15.9994           0
     50027 WT4      4808     TIP3     H1       HT       0.417000        1.0080           0
     50028 WT4      4808     TIP3     H2       HT       0.417000        1.0080           0
     50029 WT4      4809     TIP3     OH2      OT      -0.834000       15.9994           0
     50030 WT4      4809     TIP3     H1       HT       0.417000        1.0080           0
     50031 WT4      4809     TIP3     H2       HT       0.417000        1.0080           0
     50032 WT4      4814     TIP3     OH2      OT      -0.834000       15.9994           0
     50033 WT4      4814     TIP3     H1       HT       0.417000        1.0080           0
     50034 WT4      4814     TIP3     H2       HT       0.417000        1.0080           0
     50035 WT4      4820     TIP3     OH2      OT      -0.834000       15.9994           0
     50036 WT4      4820     TIP3     H1       HT       0.417000        1.0080           0
     50037 WT4      4820     TIP3     H2       HT       0.417000        1.0080           0
     50038 WT4      4834     TIP3     OH2      OT      -0.834000       15.9994           0
     50039 WT4      4834     TIP3     H1       HT       0.417000        1.0080           0
     50040 WT4      4834     TIP3     H2       HT       0.417000        1.0080           0
     50041 WT4      4835     TIP3     OH2      OT      -0.834000       15.9994           0
     50042 WT4      4835     TIP3     H1       HT       0.417000        1.0080           0
     50043 WT4      4835     TIP3     H2       HT       0.417000        1.0080           0
     50044 WT4      4836     TIP3     OH2      OT      -0.834000       15.9994           0
     50045 WT4      4836     TIP3     H1       HT       0.417000        1.0080           0
     50046 WT4      4836     TIP3     H2       HT       0.417000        1.0080           0
     50047 WT4      4837     TIP3     OH2      OT      -0.834000       15.9994           0
     50048 WT4      4837     TIP3     H1       HT       0.417000        1.0080           0
     50049 WT4      4837     TIP3     H2       HT       0.417000        1.0080           0
     50050 WT4      4849     TIP3     OH2      OT      -0.834000       15.9994           0
     50051 WT4      4849     TIP3     H1       HT       0.417000        1.0080           0
     50052 WT4      4849     TIP3     H2       HT       0.417000        1.0080           0
     50053 WT4      4851     TIP3     OH2      OT      -0.834000       15.9994           0
     50054 WT4      4851     TIP3     H1       HT       0.417000        1.0080           0
     50055 WT4      4851     TIP3     H2       HT       0.417000        1.0080           0
     50056 WT4      4853     TIP3     OH2      OT      -0.834000       15.9994           0
     50057 WT4      4853     TIP3     H1       HT       0.417000        1.0080           0
     50058 WT4      4853     TIP3     H2       HT       0.417000        1.0080           0
     50059 WT4      4855     TIP3     OH2      OT      -0.834000       15.9994           0
     50060 WT4      4855     TIP3     H1       HT       0.417000        1.0080           0
     50061 WT4      4855     TIP3     H2       HT       0.417000        1.0080           0
     50062 WT4      4857     TIP3     OH2      OT      -0.834000       15.9994           0
     50063 WT4      4857     TIP3     H1       HT       0.417000        1.0080           0
     50064 WT4      4857     TIP3     H2       HT       0.417000        1.0080           0
     50065 WT4      4863     TIP3     OH2      OT      -0.834000       15.9994           0
     50066 WT4      4863     TIP3     H1       HT       0.417000        1.0080           0
     50067 WT4      4863     TIP3     H2       HT       0.417000        1.0080           0
     50068 WT4      4872     TIP3     OH2      OT      -0.834000       15.9994           0
     50069 WT4      4872     TIP3     H1       HT       0.417000        1.0080           0
     50070 WT4      4872     TIP3     H2       HT       0.417000        1.0080           0
     50071 WT4      4875     TIP3     OH2      OT      -0.834000       15.9994           0
     50072 WT4      4875     TIP3     H1       HT       0.417000        1.0080           0
     50073 WT4      4875     TIP3     H2       HT       0.417000        1.0080           0
     50074 WT4      4877     TIP3     OH2      OT      -0.834000       15.9994           0
     50075 WT4      4877     TIP3     H1       HT       0.417000        1.0080           0
     50076 WT4      4877     TIP3     H2       HT       0.417000        1.0080           0
     50077 WT4      4893     TIP3     OH2      OT      -0.834000       15.9994           0
     50078 WT4      4893     TIP3     H1       HT       0.417000        1.0080           0
     50079 WT4      4893     TIP3     H2       HT       0.417000        1.0080           0
     50080 WT4      4896     TIP3     OH2      OT      -0.834000       15.9994           0
     50081 WT4      4896     TIP3     H1       HT       0.417000        1.0080           0
     50082 WT4      4896     TIP3     H2       HT       0.417000        1.0080           0
     50083 WT4      4897     TIP3     OH2      OT      -0.834000       15.9994           0
     50084 WT4      4897     TIP3     H1       HT       0.417000        1.0080           0
     50085 WT4      4897     TIP3     H2       HT       0.417000        1.0080           0
     50086 WT4      4898     TIP3     OH2      OT      -0.834000       15.9994           0
     50087 WT4      4898     TIP3     H1       HT       0.417000        1.0080           0
     50088 WT4      4898     TIP3     H2       HT       0.417000        1.0080           0
     50089 WT4      4899     TIP3     OH2      OT      -0.834000       15.9994           0
     50090 WT4      4899     TIP3     H1       HT       0.417000        1.0080           0
     50091 WT4      4899     TIP3     H2       HT       0.417000        1.0080           0
     50092 WT4      4914     TIP3     OH2      OT      -0.834000       15.9994           0
     50093 WT4      4914     TIP3     H1       HT       0.417000        1.0080           0
     50094 WT4      4914     TIP3     H2       HT       0.417000        1.0080           0
     50095 WT4      4915     TIP3     OH2      OT      -0.834000       15.9994           0
     50096 WT4      4915     TIP3     H1       HT       0.417000        1.0080           0
     50097 WT4      4915     TIP3     H2       HT       0.417000        1.0080           0
     50098 WT4      4916     TIP3     OH2      OT      -0.834000       15.9994           0
     50099 WT4      4916     TIP3     H1       HT       0.417000        1.0080           0
     50100 WT4      4916     TIP3     H2       HT       0.417000        1.0080           0
     50101 WT4      4919     TIP3     OH2      OT      -0.834000       15.9994           0
     50102 WT4      4919     TIP3     H1       HT       0.417000        1.0080           0
     50103 WT4      4919     TIP3     H2       HT       0.417000        1.0080           0
     50104 WT4      4922     TIP3     OH2      OT      -0.834000       15.9994           0
     50105 WT4      4922     TIP3     H1       HT       0.417000        1.0080           0
     50106 WT4      4922     TIP3     H2       HT       0.417000        1.0080           0
     50107 WT4      4924     TIP3     OH2      OT      -0.834000       15.9994           0
     50108 WT4      4924     TIP3     H1       HT       0.417000        1.0080           0
     50109 WT4      4924     TIP3     H2       HT       0.417000        1.0080           0
     50110 WT4      4934     TIP3     OH2      OT      -0.834000       15.9994           0
     50111 WT4      4934     TIP3     H1       HT       0.417000        1.0080           0
     50112 WT4      4934     TIP3     H2       HT       0.417000        1.0080           0
     50113 WT4      4935     TIP3     OH2      OT      -0.834000       15.9994           0
     50114 WT4      4935     TIP3     H1       HT       0.417000        1.0080           0
     50115 WT4      4935     TIP3     H2       HT       0.417000        1.0080           0
     50116 WT4      4936     TIP3     OH2      OT      -0.834000       15.9994           0
     50117 WT4      4936     TIP3     H1       HT       0.417000        1.0080           0
     50118 WT4      4936     TIP3     H2       HT       0.417000        1.0080           0
     50119 WT4      4937     TIP3     OH2      OT      -0.834000       15.9994           0
     50120 WT4      4937     TIP3     H1       HT       0.417000        1.0080           0
     50121 WT4      4937     TIP3     H2       HT       0.417000        1.0080           0
     50122 WT4      4939     TIP3     OH2      OT      -0.834000       15.9994           0
     50123 WT4      4939     TIP3     H1       HT       0.417000        1.0080           0
     50124 WT4      4939     TIP3     H2       HT       0.417000        1.0080           0
     50125 WT4      4942     TIP3     OH2      OT      -0.834000       15.9994           0
     50126 WT4      4942     TIP3     H1       HT       0.417000        1.0080           0
     50127 WT4      4942     TIP3     H2       HT       0.417000        1.0080           0
     50128 WT4      4956     TIP3     OH2      OT      -0.834000       15.9994           0
     50129 WT4      4956     TIP3     H1       HT       0.417000        1.0080           0
     50130 WT4      4956     TIP3     H2       HT       0.417000        1.0080           0
     50131 WT4      4957     TIP3     OH2      OT      -0.834000       15.9994           0
     50132 WT4      4957     TIP3     H1       HT       0.417000        1.0080           0
     50133 WT4      4957     TIP3     H2       HT       0.417000        1.0080           0
     50134 WT4      4963     TIP3     OH2      OT      -0.834000       15.9994           0
     50135 WT4      4963     TIP3     H1       HT       0.417000        1.0080           0
     50136 WT4      4963     TIP3     H2       HT       0.417000        1.0080           0
     50137 WT4      4965     TIP3     OH2      OT      -0.834000       15.9994           0
     50138 WT4      4965     TIP3     H1       HT       0.417000        1.0080           0
     50139 WT4      4965     TIP3     H2       HT       0.417000        1.0080           0
     50140 WT4      4968     TIP3     OH2      OT      -0.834000       15.9994           0
     50141 WT4      4968     TIP3     H1       HT       0.417000        1.0080           0
     50142 WT4      4968     TIP3     H2       HT       0.417000        1.0080           0
     50143 WT4      4978     TIP3     OH2      OT      -0.834000       15.9994           0
     50144 WT4      4978     TIP3     H1       HT       0.417000        1.0080           0
     50145 WT4      4978     TIP3     H2       HT       0.417000        1.0080           0
     50146 WT4      4980     TIP3     OH2      OT      -0.834000       15.9994           0
     50147 WT4      4980     TIP3     H1       HT       0.417000        1.0080           0
     50148 WT4      4980     TIP3     H2       HT       0.417000        1.0080           0
     50149 WT4      4981     TIP3     OH2      OT      -0.834000       15.9994           0
     50150 WT4      4981     TIP3     H1       HT       0.417000        1.0080           0
     50151 WT4      4981     TIP3     H2       HT       0.417000        1.0080           0
     50152 WT4      4983     TIP3     OH2      OT      -0.834000       15.9994           0
     50153 WT4      4983     TIP3     H1       HT       0.417000        1.0080           0
     50154 WT4      4983     TIP3     H2       HT       0.417000        1.0080           0
     50155 WT4      4985     TIP3     OH2      OT      -0.834000       15.9994           0
     50156 WT4      4985     TIP3     H1       HT       0.417000        1.0080           0
     50157 WT4      4985     TIP3     H2       HT       0.417000        1.0080           0
     50158 WT4      4996     TIP3     OH2      OT      -0.834000       15.9994           0
     50159 WT4      4996     TIP3     H1       HT       0.417000        1.0080           0
     50160 WT4      4996     TIP3     H2       HT       0.417000        1.0080           0
     50161 WT4      5001     TIP3     OH2      OT      -0.834000       15.9994           0
     50162 WT4      5001     TIP3     H1       HT       0.417000        1.0080           0
     50163 WT4      5001     TIP3     H2       HT       0.417000        1.0080           0
     50164 WT4      5002     TIP3     OH2      OT      -0.834000       15.9994           0
     50165 WT4      5002     TIP3     H1       HT       0.417000        1.0080           0
     50166 WT4      5002     TIP3     H2       HT       0.417000        1.0080           0
     50167 WT4      5005     TIP3     OH2      OT      -0.834000       15.9994           0
     50168 WT4      5005     TIP3     H1       HT       0.417000        1.0080           0
     50169 WT4      5005     TIP3     H2       HT       0.417000        1.0080           0
     50170 WT4      5009     TIP3     OH2      OT      -0.834000       15.9994           0
     50171 WT4      5009     TIP3     H1       HT       0.417000        1.0080           0
     50172 WT4      5009     TIP3     H2       HT       0.417000        1.0080           0
     50173 WT4      5019     TIP3     OH2      OT      -0.834000       15.9994           0
     50174 WT4      5019     TIP3     H1       HT       0.417000        1.0080           0
     50175 WT4      5019     TIP3     H2       HT       0.417000        1.0080           0
     50176 WT4      5061     TIP3     OH2      OT      -0.834000       15.9994           0
     50177 WT4      5061     TIP3     H1       HT       0.417000        1.0080           0
     50178 WT4      5061     TIP3     H2       HT       0.417000        1.0080           0
     50179 WT4      5085     TIP3     OH2      OT      -0.834000       15.9994           0
     50180 WT4      5085     TIP3     H1       HT       0.417000        1.0080           0
     50181 WT4      5085     TIP3     H2       HT       0.417000        1.0080           0
     50182 WT4      5193     TIP3     OH2      OT      -0.834000       15.9994           0
     50183 WT4      5193     TIP3     H1       HT       0.417000        1.0080           0
     50184 WT4      5193     TIP3     H2       HT       0.417000        1.0080           0
     50185 WT4      5234     TIP3     OH2      OT      -0.834000       15.9994           0
     50186 WT4      5234     TIP3     H1       HT       0.417000        1.0080           0
     50187 WT4      5234     TIP3     H2       HT       0.417000        1.0080           0
     50188 WT4      5251     TIP3     OH2      OT      -0.834000       15.9994           0
     50189 WT4      5251     TIP3     H1       HT       0.417000        1.0080           0
     50190 WT4      5251     TIP3     H2       HT       0.417000        1.0080           0
     50191 WT4      5259     TIP3     OH2      OT      -0.834000       15.9994           0
     50192 WT4      5259     TIP3     H1       HT       0.417000        1.0080           0
     50193 WT4      5259     TIP3     H2       HT       0.417000        1.0080           0
     50194 WT4      5260     TIP3     OH2      OT      -0.834000       15.9994           0
     50195 WT4      5260     TIP3     H1       HT       0.417000        1.0080           0
     50196 WT4      5260     TIP3     H2       HT       0.417000        1.0080           0
     50197 WT4      5271     TIP3     OH2      OT      -0.834000       15.9994           0
     50198 WT4      5271     TIP3     H1       HT       0.417000        1.0080           0
     50199 WT4      5271     TIP3     H2       HT       0.417000        1.0080           0
     50200 WT4      5272     TIP3     OH2      OT      -0.834000       15.9994           0
     50201 WT4      5272     TIP3     H1       HT       0.417000        1.0080           0
     50202 WT4      5272     TIP3     H2       HT       0.417000        1.0080           0
     50203 WT4      5296     TIP3     OH2      OT      -0.834000       15.9994           0
     50204 WT4      5296     TIP3     H1       HT       0.417000        1.0080           0
     50205 WT4      5296     TIP3     H2       HT       0.417000        1.0080           0
     50206 WT4      5304     TIP3     OH2      OT      -0.834000       15.9994           0
     50207 WT4      5304     TIP3     H1       HT       0.417000        1.0080           0
     50208 WT4      5304     TIP3     H2       HT       0.417000        1.0080           0
     50209 WT4      5317     TIP3     OH2      OT      -0.834000       15.9994           0
     50210 WT4      5317     TIP3     H1       HT       0.417000        1.0080           0
     50211 WT4      5317     TIP3     H2       HT       0.417000        1.0080           0
     50212 WT4      5318     TIP3     OH2      OT      -0.834000       15.9994           0
     50213 WT4      5318     TIP3     H1       HT       0.417000        1.0080           0
     50214 WT4      5318     TIP3     H2       HT       0.417000        1.0080           0
     50215 WT4      5319     TIP3     OH2      OT      -0.834000       15.9994           0
     50216 WT4      5319     TIP3     H1       HT       0.417000        1.0080           0
     50217 WT4      5319     TIP3     H2       HT       0.417000        1.0080           0
     50218 WT4      5320     TIP3     OH2      OT      -0.834000       15.9994           0
     50219 WT4      5320     TIP3     H1       HT       0.417000        1.0080           0
     50220 WT4      5320     TIP3     H2       HT       0.417000        1.0080           0
     50221 WT4      5332     TIP3     OH2      OT      -0.834000       15.9994           0
     50222 WT4      5332     TIP3     H1       HT       0.417000        1.0080           0
     50223 WT4      5332     TIP3     H2       HT       0.417000        1.0080           0
     50224 WT4      5341     TIP3     OH2      OT      -0.834000       15.9994           0
     50225 WT4      5341     TIP3     H1       HT       0.417000        1.0080           0
     50226 WT4      5341     TIP3     H2       HT       0.417000        1.0080           0
     50227 WT4      5355     TIP3     OH2      OT      -0.834000       15.9994           0
     50228 WT4      5355     TIP3     H1       HT       0.417000        1.0080           0
     50229 WT4      5355     TIP3     H2       HT       0.417000        1.0080           0
     50230 WT4      5356     TIP3     OH2      OT      -0.834000       15.9994           0
     50231 WT4      5356     TIP3     H1       HT       0.417000        1.0080           0
     50232 WT4      5356     TIP3     H2       HT       0.417000        1.0080           0
     50233 WT4      5358     TIP3     OH2      OT      -0.834000       15.9994           0
     50234 WT4      5358     TIP3     H1       HT       0.417000        1.0080           0
     50235 WT4      5358     TIP3     H2       HT       0.417000        1.0080           0
     50236 WT4      5359     TIP3     OH2      OT      -0.834000       15.9994           0
     50237 WT4      5359     TIP3     H1       HT       0.417000        1.0080           0
     50238 WT4      5359     TIP3     H2       HT       0.417000        1.0080           0
     50239 WT4      5360     TIP3     OH2      OT      -0.834000       15.9994           0
     50240 WT4      5360     TIP3     H1       HT       0.417000        1.0080           0
     50241 WT4      5360     TIP3     H2       HT       0.417000        1.0080           0
     50242 WT4      5363     TIP3     OH2      OT      -0.834000       15.9994           0
     50243 WT4      5363     TIP3     H1       HT       0.417000        1.0080           0
     50244 WT4      5363     TIP3     H2       HT       0.417000        1.0080           0
     50245 WT4      5364     TIP3     OH2      OT      -0.834000       15.9994           0
     50246 WT4      5364     TIP3     H1       HT       0.417000        1.0080           0
     50247 WT4      5364     TIP3     H2       HT       0.417000        1.0080           0
     50248 WT4      5366     TIP3     OH2      OT      -0.834000       15.9994           0
     50249 WT4      5366     TIP3     H1       HT       0.417000        1.0080           0
     50250 WT4      5366     TIP3     H2       HT       0.417000        1.0080           0
     50251 WT4      5375     TIP3     OH2      OT      -0.834000       15.9994           0
     50252 WT4      5375     TIP3     H1       HT       0.417000        1.0080           0
     50253 WT4      5375     TIP3     H2       HT       0.417000        1.0080           0
     50254 WT4      5377     TIP3     OH2      OT      -0.834000       15.9994           0
     50255 WT4      5377     TIP3     H1       HT       0.417000        1.0080           0
     50256 WT4      5377     TIP3     H2       HT       0.417000        1.0080           0
     50257 WT4      5378     TIP3     OH2      OT      -0.834000       15.9994           0
     50258 WT4      5378     TIP3     H1       HT       0.417000        1.0080           0
     50259 WT4      5378     TIP3     H2       HT       0.417000        1.0080           0
     50260 WT4      5379     TIP3     OH2      OT      -0.834000       15.9994           0
     50261 WT4      5379     TIP3     H1       HT       0.417000        1.0080           0
     50262 WT4      5379     TIP3     H2       HT       0.417000        1.0080           0
     50263 WT4      5380     TIP3     OH2      OT      -0.834000       15.9994           0
     50264 WT4      5380     TIP3     H1       HT       0.417000        1.0080           0
     50265 WT4      5380     TIP3     H2       HT       0.417000        1.0080           0
     50266 WT4      5382     TIP3     OH2      OT      -0.834000       15.9994           0
     50267 WT4      5382     TIP3     H1       HT       0.417000        1.0080           0
     50268 WT4      5382     TIP3     H2       HT       0.417000        1.0080           0
     50269 WT4      5383     TIP3     OH2      OT      -0.834000       15.9994           0
     50270 WT4      5383     TIP3     H1       HT       0.417000        1.0080           0
     50271 WT4      5383     TIP3     H2       HT       0.417000        1.0080           0
     50272 WT4      5384     TIP3     OH2      OT      -0.834000       15.9994           0
     50273 WT4      5384     TIP3     H1       HT       0.417000        1.0080           0
     50274 WT4      5384     TIP3     H2       HT       0.417000        1.0080           0
     50275 WT4      5385     TIP3     OH2      OT      -0.834000       15.9994           0
     50276 WT4      5385     TIP3     H1       HT       0.417000        1.0080           0
     50277 WT4      5385     TIP3     H2       HT       0.417000        1.0080           0
     50278 WT4      5393     TIP3     OH2      OT      -0.834000       15.9994           0
     50279 WT4      5393     TIP3     H1       HT       0.417000        1.0080           0
     50280 WT4      5393     TIP3     H2       HT       0.417000        1.0080           0
     50281 WT4      5396     TIP3     OH2      OT      -0.834000       15.9994           0
     50282 WT4      5396     TIP3     H1       HT       0.417000        1.0080           0
     50283 WT4      5396     TIP3     H2       HT       0.417000        1.0080           0
     50284 WT4      5400     TIP3     OH2      OT      -0.834000       15.9994           0
     50285 WT4      5400     TIP3     H1       HT       0.417000        1.0080           0
     50286 WT4      5400     TIP3     H2       HT       0.417000        1.0080           0
     50287 WT4      5402     TIP3     OH2      OT      -0.834000       15.9994           0
     50288 WT4      5402     TIP3     H1       HT       0.417000        1.0080           0
     50289 WT4      5402     TIP3     H2       HT       0.417000        1.0080           0
     50290 WT4      5404     TIP3     OH2      OT      -0.834000       15.9994           0
     50291 WT4      5404     TIP3     H1       HT       0.417000        1.0080           0
     50292 WT4      5404     TIP3     H2       HT       0.417000        1.0080           0
     50293 WT4      5426     TIP3     OH2      OT      -0.834000       15.9994           0
     50294 WT4      5426     TIP3     H1       HT       0.417000        1.0080           0
     50295 WT4      5426     TIP3     H2       HT       0.417000        1.0080           0
     50296 WT4      5430     TIP3     OH2      OT      -0.834000       15.9994           0
     50297 WT4      5430     TIP3     H1       HT       0.417000        1.0080           0
     50298 WT4      5430     TIP3     H2       HT       0.417000        1.0080           0
     50299 WT4      5431     TIP3     OH2      OT      -0.834000       15.9994           0
     50300 WT4      5431     TIP3     H1       HT       0.417000        1.0080           0
     50301 WT4      5431     TIP3     H2       HT       0.417000        1.0080           0
     50302 WT4      5434     TIP3     OH2      OT      -0.834000       15.9994           0
     50303 WT4      5434     TIP3     H1       HT       0.417000        1.0080           0
     50304 WT4      5434     TIP3     H2       HT       0.417000        1.0080           0
     50305 WT4      5440     TIP3     OH2      OT      -0.834000       15.9994           0
     50306 WT4      5440     TIP3     H1       HT       0.417000        1.0080           0
     50307 WT4      5440     TIP3     H2       HT       0.417000        1.0080           0
     50308 WT4      5442     TIP3     OH2      OT      -0.834000       15.9994           0
     50309 WT4      5442     TIP3     H1       HT       0.417000        1.0080           0
     50310 WT4      5442     TIP3     H2       HT       0.417000        1.0080           0
     50311 WT4      5443     TIP3     OH2      OT      -0.834000       15.9994           0
     50312 WT4      5443     TIP3     H1       HT       0.417000        1.0080           0
     50313 WT4      5443     TIP3     H2       HT       0.417000        1.0080           0
     50314 WT4      5444     TIP3     OH2      OT      -0.834000       15.9994           0
     50315 WT4      5444     TIP3     H1       HT       0.417000        1.0080           0
     50316 WT4      5444     TIP3     H2       HT       0.417000        1.0080           0
     50317 WT4      5446     TIP3     OH2      OT      -0.834000       15.9994           0
     50318 WT4      5446     TIP3     H1       HT       0.417000        1.0080           0
     50319 WT4      5446     TIP3     H2       HT       0.417000        1.0080           0
     50320 WT4      5460     TIP3     OH2      OT      -0.834000       15.9994           0
     50321 WT4      5460     TIP3     H1       HT       0.417000        1.0080           0
     50322 WT4      5460     TIP3     H2       HT       0.417000        1.0080           0
     50323 WT4      5461     TIP3     OH2      OT      -0.834000       15.9994           0
     50324 WT4      5461     TIP3     H1       HT       0.417000        1.0080           0
     50325 WT4      5461     TIP3     H2       HT       0.417000        1.0080           0
     50326 WT4      5466     TIP3     OH2      OT      -0.834000       15.9994           0
     50327 WT4      5466     TIP3     H1       HT       0.417000        1.0080           0
     50328 WT4      5466     TIP3     H2       HT       0.417000        1.0080           0
     50329 WT4      5481     TIP3     OH2      OT      -0.834000       15.9994           0
     50330 WT4      5481     TIP3     H1       HT       0.417000        1.0080           0
     50331 WT4      5481     TIP3     H2       HT       0.417000        1.0080           0
     50332 WT4      5482     TIP3     OH2      OT      -0.834000       15.9994           0
     50333 WT4      5482     TIP3     H1       HT       0.417000        1.0080           0
     50334 WT4      5482     TIP3     H2       HT       0.417000        1.0080           0
     50335 WT4      5484     TIP3     OH2      OT      -0.834000       15.9994           0
     50336 WT4      5484     TIP3     H1       HT       0.417000        1.0080           0
     50337 WT4      5484     TIP3     H2       HT       0.417000        1.0080           0
     50338 WT4      5485     TIP3     OH2      OT      -0.834000       15.9994           0
     50339 WT4      5485     TIP3     H1       HT       0.417000        1.0080           0
     50340 WT4      5485     TIP3     H2       HT       0.417000        1.0080           0
     50341 WT4      5487     TIP3     OH2      OT      -0.834000       15.9994           0
     50342 WT4      5487     TIP3     H1       HT       0.417000        1.0080           0
     50343 WT4      5487     TIP3     H2       HT       0.417000        1.0080           0
     50344 WT4      5528     TIP3     OH2      OT      -0.834000       15.9994           0
     50345 WT4      5528     TIP3     H1       HT       0.417000        1.0080           0
     50346 WT4      5528     TIP3     H2       HT       0.417000        1.0080           0
     50347 WT4      5650     TIP3     OH2      OT      -0.834000       15.9994           0
     50348 WT4      5650     TIP3     H1       HT       0.417000        1.0080           0
     50349 WT4      5650     TIP3     H2       HT       0.417000        1.0080           0
     50350 WT4      5654     TIP3     OH2      OT      -0.834000       15.9994           0
     50351 WT4      5654     TIP3     H1       HT       0.417000        1.0080           0
     50352 WT4      5654     TIP3     H2       HT       0.417000        1.0080           0
     50353 WT4      5669     TIP3     OH2      OT      -0.834000       15.9994           0
     50354 WT4      5669     TIP3     H1       HT       0.417000        1.0080           0
     50355 WT4      5669     TIP3     H2       HT       0.417000        1.0080           0
     50356 WT4      5676     TIP3     OH2      OT      -0.834000       15.9994           0
     50357 WT4      5676     TIP3     H1       HT       0.417000        1.0080           0
     50358 WT4      5676     TIP3     H2       HT       0.417000        1.0080           0
     50359 WT4      5678     TIP3     OH2      OT      -0.834000       15.9994           0
     50360 WT4      5678     TIP3     H1       HT       0.417000        1.0080           0
     50361 WT4      5678     TIP3     H2       HT       0.417000        1.0080           0
     50362 WT4      5679     TIP3     OH2      OT      -0.834000       15.9994           0
     50363 WT4      5679     TIP3     H1       HT       0.417000        1.0080           0
     50364 WT4      5679     TIP3     H2       HT       0.417000        1.0080           0
     50365 WT4      5690     TIP3     OH2      OT      -0.834000       15.9994           0
     50366 WT4      5690     TIP3     H1       HT       0.417000        1.0080           0
     50367 WT4      5690     TIP3     H2       HT       0.417000        1.0080           0
     50368 WT4      5692     TIP3     OH2      OT      -0.834000       15.9994           0
     50369 WT4      5692     TIP3     H1       HT       0.417000        1.0080           0
     50370 WT4      5692     TIP3     H2       HT       0.417000        1.0080           0
     50371 WT4      5697     TIP3     OH2      OT      -0.834000       15.9994           0
     50372 WT4      5697     TIP3     H1       HT       0.417000        1.0080           0
     50373 WT4      5697     TIP3     H2       HT       0.417000        1.0080           0
     50374 WT4      5710     TIP3     OH2      OT      -0.834000       15.9994           0
     50375 WT4      5710     TIP3     H1       HT       0.417000        1.0080           0
     50376 WT4      5710     TIP3     H2       HT       0.417000        1.0080           0
     50377 WT4      5711     TIP3     OH2      OT      -0.834000       15.9994           0
     50378 WT4      5711     TIP3     H1       HT       0.417000        1.0080           0
     50379 WT4      5711     TIP3     H2       HT       0.417000        1.0080           0
     50380 WT4      5713     TIP3     OH2      OT      -0.834000       15.9994           0
     50381 WT4      5713     TIP3     H1       HT       0.417000        1.0080           0
     50382 WT4      5713     TIP3     H2       HT       0.417000        1.0080           0
     50383 WT4      5714     TIP3     OH2      OT      -0.834000       15.9994           0
     50384 WT4      5714     TIP3     H1       HT       0.417000        1.0080           0
     50385 WT4      5714     TIP3     H2       HT       0.417000        1.0080           0
     50386 WT4      5715     TIP3     OH2      OT      -0.834000       15.9994           0
     50387 WT4      5715     TIP3     H1       HT       0.417000        1.0080           0
     50388 WT4      5715     TIP3     H2       HT       0.417000        1.0080           0
     50389 WT4      5720     TIP3     OH2      OT      -0.834000       15.9994           0
     50390 WT4      5720     TIP3     H1       HT       0.417000        1.0080           0
     50391 WT4      5720     TIP3     H2       HT       0.417000        1.0080           0
     50392 WT4      5723     TIP3     OH2      OT      -0.834000       15.9994           0
     50393 WT4      5723     TIP3     H1       HT       0.417000        1.0080           0
     50394 WT4      5723     TIP3     H2       HT       0.417000        1.0080           0
     50395 WT4      5734     TIP3     OH2      OT      -0.834000       15.9994           0
     50396 WT4      5734     TIP3     H1       HT       0.417000        1.0080           0
     50397 WT4      5734     TIP3     H2       HT       0.417000        1.0080           0
     50398 WT4      5736     TIP3     OH2      OT      -0.834000       15.9994           0
     50399 WT4      5736     TIP3     H1       HT       0.417000        1.0080           0
     50400 WT4      5736     TIP3     H2       HT       0.417000        1.0080           0
     50401 WT4      5738     TIP3     OH2      OT      -0.834000       15.9994           0
     50402 WT4      5738     TIP3     H1       HT       0.417000        1.0080           0
     50403 WT4      5738     TIP3     H2       HT       0.417000        1.0080           0
     50404 WT4      5755     TIP3     OH2      OT      -0.834000       15.9994           0
     50405 WT4      5755     TIP3     H1       HT       0.417000        1.0080           0
     50406 WT4      5755     TIP3     H2       HT       0.417000        1.0080           0
     50407 WT4      5756     TIP3     OH2      OT      -0.834000       15.9994           0
     50408 WT4      5756     TIP3     H1       HT       0.417000        1.0080           0
     50409 WT4      5756     TIP3     H2       HT       0.417000        1.0080           0
     50410 WT4      5758     TIP3     OH2      OT      -0.834000       15.9994           0
     50411 WT4      5758     TIP3     H1       HT       0.417000        1.0080           0
     50412 WT4      5758     TIP3     H2       HT       0.417000        1.0080           0
     50413 WT4      5762     TIP3     OH2      OT      -0.834000       15.9994           0
     50414 WT4      5762     TIP3     H1       HT       0.417000        1.0080           0
     50415 WT4      5762     TIP3     H2       HT       0.417000        1.0080           0
     50416 WT4      5764     TIP3     OH2      OT      -0.834000       15.9994           0
     50417 WT4      5764     TIP3     H1       HT       0.417000        1.0080           0
     50418 WT4      5764     TIP3     H2       HT       0.417000        1.0080           0
     50419 WT4      5767     TIP3     OH2      OT      -0.834000       15.9994           0
     50420 WT4      5767     TIP3     H1       HT       0.417000        1.0080           0
     50421 WT4      5767     TIP3     H2       HT       0.417000        1.0080           0
     50422 WT4      5768     TIP3     OH2      OT      -0.834000       15.9994           0
     50423 WT4      5768     TIP3     H1       HT       0.417000        1.0080           0
     50424 WT4      5768     TIP3     H2       HT       0.417000        1.0080           0
     50425 WT4      5777     TIP3     OH2      OT      -0.834000       15.9994           0
     50426 WT4      5777     TIP3     H1       HT       0.417000        1.0080           0
     50427 WT4      5777     TIP3     H2       HT       0.417000        1.0080           0
     50428 WT4      5778     TIP3     OH2      OT      -0.834000       15.9994           0
     50429 WT4      5778     TIP3     H1       HT       0.417000        1.0080           0
     50430 WT4      5778     TIP3     H2       HT       0.417000        1.0080           0
     50431 WT4      5779     TIP3     OH2      OT      -0.834000       15.9994           0
     50432 WT4      5779     TIP3     H1       HT       0.417000        1.0080           0
     50433 WT4      5779     TIP3     H2       HT       0.417000        1.0080           0
     50434 WT4      5780     TIP3     OH2      OT      -0.834000       15.9994           0
     50435 WT4      5780     TIP3     H1       HT       0.417000        1.0080           0
     50436 WT4      5780     TIP3     H2       HT       0.417000        1.0080           0
     50437 WT4      5795     TIP3     OH2      OT      -0.834000       15.9994           0
     50438 WT4      5795     TIP3     H1       HT       0.417000        1.0080           0
     50439 WT4      5795     TIP3     H2       HT       0.417000        1.0080           0
     50440 WT4      5797     TIP3     OH2      OT      -0.834000       15.9994           0
     50441 WT4      5797     TIP3     H1       HT       0.417000        1.0080           0
     50442 WT4      5797     TIP3     H2       HT       0.417000        1.0080           0
     50443 WT4      5798     TIP3     OH2      OT      -0.834000       15.9994           0
     50444 WT4      5798     TIP3     H1       HT       0.417000        1.0080           0
     50445 WT4      5798     TIP3     H2       HT       0.417000        1.0080           0
     50446 WT4      5799     TIP3     OH2      OT      -0.834000       15.9994           0
     50447 WT4      5799     TIP3     H1       HT       0.417000        1.0080           0
     50448 WT4      5799     TIP3     H2       HT       0.417000        1.0080           0
     50449 WT4      5800     TIP3     OH2      OT      -0.834000       15.9994           0
     50450 WT4      5800     TIP3     H1       HT       0.417000        1.0080           0
     50451 WT4      5800     TIP3     H2       HT       0.417000        1.0080           0
     50452 WT4      5801     TIP3     OH2      OT      -0.834000       15.9994           0
     50453 WT4      5801     TIP3     H1       HT       0.417000        1.0080           0
     50454 WT4      5801     TIP3     H2       HT       0.417000        1.0080           0
     50455 WT4      5802     TIP3     OH2      OT      -0.834000       15.9994           0
     50456 WT4      5802     TIP3     H1       HT       0.417000        1.0080           0
     50457 WT4      5802     TIP3     H2       HT       0.417000        1.0080           0
     50458 WT4      5819     TIP3     OH2      OT      -0.834000       15.9994           0
     50459 WT4      5819     TIP3     H1       HT       0.417000        1.0080           0
     50460 WT4      5819     TIP3     H2       HT       0.417000        1.0080           0
     50461 WT4      5820     TIP3     OH2      OT      -0.834000       15.9994           0
     50462 WT4      5820     TIP3     H1       HT       0.417000        1.0080           0
     50463 WT4      5820     TIP3     H2       HT       0.417000        1.0080           0
     50464 WT4      5821     TIP3     OH2      OT      -0.834000       15.9994           0
     50465 WT4      5821     TIP3     H1       HT       0.417000        1.0080           0
     50466 WT4      5821     TIP3     H2       HT       0.417000        1.0080           0
     50467 WT4      5823     TIP3     OH2      OT      -0.834000       15.9994           0
     50468 WT4      5823     TIP3     H1       HT       0.417000        1.0080           0
     50469 WT4      5823     TIP3     H2       HT       0.417000        1.0080           0
     50470 WT4      5827     TIP3     OH2      OT      -0.834000       15.9994           0
     50471 WT4      5827     TIP3     H1       HT       0.417000        1.0080           0
     50472 WT4      5827     TIP3     H2       HT       0.417000        1.0080           0
     50473 WT4      5828     TIP3     OH2      OT      -0.834000       15.9994           0
     50474 WT4      5828     TIP3     H1       HT       0.417000        1.0080           0
     50475 WT4      5828     TIP3     H2       HT       0.417000        1.0080           0
     50476 WT4      5836     TIP3     OH2      OT      -0.834000       15.9994           0
     50477 WT4      5836     TIP3     H1       HT       0.417000        1.0080           0
     50478 WT4      5836     TIP3     H2       HT       0.417000        1.0080           0
     50479 WT4      5837     TIP3     OH2      OT      -0.834000       15.9994           0
     50480 WT4      5837     TIP3     H1       HT       0.417000        1.0080           0
     50481 WT4      5837     TIP3     H2       HT       0.417000        1.0080           0
     50482 WT4      5839     TIP3     OH2      OT      -0.834000       15.9994           0
     50483 WT4      5839     TIP3     H1       HT       0.417000        1.0080           0
     50484 WT4      5839     TIP3     H2       HT       0.417000        1.0080           0
     50485 WT4      5841     TIP3     OH2      OT      -0.834000       15.9994           0
     50486 WT4      5841     TIP3     H1       HT       0.417000        1.0080           0
     50487 WT4      5841     TIP3     H2       HT       0.417000        1.0080           0
     50488 WT4      5843     TIP3     OH2      OT      -0.834000       15.9994           0
     50489 WT4      5843     TIP3     H1       HT       0.417000        1.0080           0
     50490 WT4      5843     TIP3     H2       HT       0.417000        1.0080           0
     50491 WT4      5844     TIP3     OH2      OT      -0.834000       15.9994           0
     50492 WT4      5844     TIP3     H1       HT       0.417000        1.0080           0
     50493 WT4      5844     TIP3     H2       HT       0.417000        1.0080           0
     50494 WT4      5846     TIP3     OH2      OT      -0.834000       15.9994           0
     50495 WT4      5846     TIP3     H1       HT       0.417000        1.0080           0
     50496 WT4      5846     TIP3     H2       HT       0.417000        1.0080           0
     50497 WT4      5859     TIP3     OH2      OT      -0.834000       15.9994           0
     50498 WT4      5859     TIP3     H1       HT       0.417000        1.0080           0
     50499 WT4      5859     TIP3     H2       HT       0.417000        1.0080           0
     50500 WT4      5860     TIP3     OH2      OT      -0.834000       15.9994           0
     50501 WT4      5860     TIP3     H1       HT       0.417000        1.0080           0
     50502 WT4      5860     TIP3     H2       HT       0.417000        1.0080           0
     50503 WT4      5862     TIP3     OH2      OT      -0.834000       15.9994           0
     50504 WT4      5862     TIP3     H1       HT       0.417000        1.0080           0
     50505 WT4      5862     TIP3     H2       HT       0.417000        1.0080           0
     50506 WT4      5863     TIP3     OH2      OT      -0.834000       15.9994           0
     50507 WT4      5863     TIP3     H1       HT       0.417000        1.0080           0
     50508 WT4      5863     TIP3     H2       HT       0.417000        1.0080           0
     50509 WT4      5865     TIP3     OH2      OT      -0.834000       15.9994           0
     50510 WT4      5865     TIP3     H1       HT       0.417000        1.0080           0
     50511 WT4      5865     TIP3     H2       HT       0.417000        1.0080           0
     50512 WT4      5866     TIP3     OH2      OT      -0.834000       15.9994           0
     50513 WT4      5866     TIP3     H1       HT       0.417000        1.0080           0
     50514 WT4      5866     TIP3     H2       HT       0.417000        1.0080           0
     50515 WT4      5869     TIP3     OH2      OT      -0.834000       15.9994           0
     50516 WT4      5869     TIP3     H1       HT       0.417000        1.0080           0
     50517 WT4      5869     TIP3     H2       HT       0.417000        1.0080           0
     50518 WT4      5881     TIP3     OH2      OT      -0.834000       15.9994           0
     50519 WT4      5881     TIP3     H1       HT       0.417000        1.0080           0
     50520 WT4      5881     TIP3     H2       HT       0.417000        1.0080           0
     50521 WT4      5884     TIP3     OH2      OT      -0.834000       15.9994           0
     50522 WT4      5884     TIP3     H1       HT       0.417000        1.0080           0
     50523 WT4      5884     TIP3     H2       HT       0.417000        1.0080           0
     50524 WT4      5889     TIP3     OH2      OT      -0.834000       15.9994           0
     50525 WT4      5889     TIP3     H1       HT       0.417000        1.0080           0
     50526 WT4      5889     TIP3     H2       HT       0.417000        1.0080           0
     50527 WT4      5901     TIP3     OH2      OT      -0.834000       15.9994           0
     50528 WT4      5901     TIP3     H1       HT       0.417000        1.0080           0
     50529 WT4      5901     TIP3     H2       HT       0.417000        1.0080           0
     50530 WT4      5909     TIP3     OH2      OT      -0.834000       15.9994           0
     50531 WT4      5909     TIP3     H1       HT       0.417000        1.0080           0
     50532 WT4      5909     TIP3     H2       HT       0.417000        1.0080           0
     50533 WT4      5911     TIP3     OH2      OT      -0.834000       15.9994           0
     50534 WT4      5911     TIP3     H1       HT       0.417000        1.0080           0
     50535 WT4      5911     TIP3     H2       HT       0.417000        1.0080           0
     50536 WT4      5920     TIP3     OH2      OT      -0.834000       15.9994           0
     50537 WT4      5920     TIP3     H1       HT       0.417000        1.0080           0
     50538 WT4      5920     TIP3     H2       HT       0.417000        1.0080           0
     50539 WT4      5926     TIP3     OH2      OT      -0.834000       15.9994           0
     50540 WT4      5926     TIP3     H1       HT       0.417000        1.0080           0
     50541 WT4      5926     TIP3     H2       HT       0.417000        1.0080           0
     50542 WT4      5947     TIP3     OH2      OT      -0.834000       15.9994           0
     50543 WT4      5947     TIP3     H1       HT       0.417000        1.0080           0
     50544 WT4      5947     TIP3     H2       HT       0.417000        1.0080           0
     50545 WT4      5949     TIP3     OH2      OT      -0.834000       15.9994           0
     50546 WT4      5949     TIP3     H1       HT       0.417000        1.0080           0
     50547 WT4      5949     TIP3     H2       HT       0.417000        1.0080           0
     50548 WT4      6091     TIP3     OH2      OT      -0.834000       15.9994           0
     50549 WT4      6091     TIP3     H1       HT       0.417000        1.0080           0
     50550 WT4      6091     TIP3     H2       HT       0.417000        1.0080           0
     50551 WT4      6110     TIP3     OH2      OT      -0.834000       15.9994           0
     50552 WT4      6110     TIP3     H1       HT       0.417000        1.0080           0
     50553 WT4      6110     TIP3     H2       HT       0.417000        1.0080           0
     50554 WT4      6134     TIP3     OH2      OT      -0.834000       15.9994           0
     50555 WT4      6134     TIP3     H1       HT       0.417000        1.0080           0
     50556 WT4      6134     TIP3     H2       HT       0.417000        1.0080           0
     50557 WT4      6136     TIP3     OH2      OT      -0.834000       15.9994           0
     50558 WT4      6136     TIP3     H1       HT       0.417000        1.0080           0
     50559 WT4      6136     TIP3     H2       HT       0.417000        1.0080           0
     50560 WT4      6138     TIP3     OH2      OT      -0.834000       15.9994           0
     50561 WT4      6138     TIP3     H1       HT       0.417000        1.0080           0
     50562 WT4      6138     TIP3     H2       HT       0.417000        1.0080           0
     50563 WT4      6158     TIP3     OH2      OT      -0.834000       15.9994           0
     50564 WT4      6158     TIP3     H1       HT       0.417000        1.0080           0
     50565 WT4      6158     TIP3     H2       HT       0.417000        1.0080           0
     50566 WT4      6174     TIP3     OH2      OT      -0.834000       15.9994           0
     50567 WT4      6174     TIP3     H1       HT       0.417000        1.0080           0
     50568 WT4      6174     TIP3     H2       HT       0.417000        1.0080           0
     50569 WT4      6176     TIP3     OH2      OT      -0.834000       15.9994           0
     50570 WT4      6176     TIP3     H1       HT       0.417000        1.0080           0
     50571 WT4      6176     TIP3     H2       HT       0.417000        1.0080           0
     50572 WT4      6177     TIP3     OH2      OT      -0.834000       15.9994           0
     50573 WT4      6177     TIP3     H1       HT       0.417000        1.0080           0
     50574 WT4      6177     TIP3     H2       HT       0.417000        1.0080           0
     50575 WT4      6178     TIP3     OH2      OT      -0.834000       15.9994           0
     50576 WT4      6178     TIP3     H1       HT       0.417000        1.0080           0
     50577 WT4      6178     TIP3     H2       HT       0.417000        1.0080           0
     50578 WT4      6179     TIP3     OH2      OT      -0.834000       15.9994           0
     50579 WT4      6179     TIP3     H1       HT       0.417000        1.0080           0
     50580 WT4      6179     TIP3     H2       HT       0.417000        1.0080           0
     50581 WT4      6180     TIP3     OH2      OT      -0.834000       15.9994           0
     50582 WT4      6180     TIP3     H1       HT       0.417000        1.0080           0
     50583 WT4      6180     TIP3     H2       HT       0.417000        1.0080           0
     50584 WT4      6181     TIP3     OH2      OT      -0.834000       15.9994           0
     50585 WT4      6181     TIP3     H1       HT       0.417000        1.0080           0
     50586 WT4      6181     TIP3     H2       HT       0.417000        1.0080           0
     50587 WT4      6183     TIP3     OH2      OT      -0.834000       15.9994           0
     50588 WT4      6183     TIP3     H1       HT       0.417000        1.0080           0
     50589 WT4      6183     TIP3     H2       HT       0.417000        1.0080           0
     50590 WT4      6195     TIP3     OH2      OT      -0.834000       15.9994           0
     50591 WT4      6195     TIP3     H1       HT       0.417000        1.0080           0
     50592 WT4      6195     TIP3     H2       HT       0.417000        1.0080           0
     50593 WT4      6198     TIP3     OH2      OT      -0.834000       15.9994           0
     50594 WT4      6198     TIP3     H1       HT       0.417000        1.0080           0
     50595 WT4      6198     TIP3     H2       HT       0.417000        1.0080           0
     50596 WT4      6200     TIP3     OH2      OT      -0.834000       15.9994           0
     50597 WT4      6200     TIP3     H1       HT       0.417000        1.0080           0
     50598 WT4      6200     TIP3     H2       HT       0.417000        1.0080           0
     50599 WT4      6202     TIP3     OH2      OT      -0.834000       15.9994           0
     50600 WT4      6202     TIP3     H1       HT       0.417000        1.0080           0
     50601 WT4      6202     TIP3     H2       HT       0.417000        1.0080           0
     50602 WT4      6215     TIP3     OH2      OT      -0.834000       15.9994           0
     50603 WT4      6215     TIP3     H1       HT       0.417000        1.0080           0
     50604 WT4      6215     TIP3     H2       HT       0.417000        1.0080           0
     50605 WT4      6216     TIP3     OH2      OT      -0.834000       15.9994           0
     50606 WT4      6216     TIP3     H1       HT       0.417000        1.0080           0
     50607 WT4      6216     TIP3     H2       HT       0.417000        1.0080           0
     50608 WT4      6218     TIP3     OH2      OT      -0.834000       15.9994           0
     50609 WT4      6218     TIP3     H1       HT       0.417000        1.0080           0
     50610 WT4      6218     TIP3     H2       HT       0.417000        1.0080           0
     50611 WT4      6219     TIP3     OH2      OT      -0.834000       15.9994           0
     50612 WT4      6219     TIP3     H1       HT       0.417000        1.0080           0
     50613 WT4      6219     TIP3     H2       HT       0.417000        1.0080           0
     50614 WT4      6220     TIP3     OH2      OT      -0.834000       15.9994           0
     50615 WT4      6220     TIP3     H1       HT       0.417000        1.0080           0
     50616 WT4      6220     TIP3     H2       HT       0.417000        1.0080           0
     50617 WT4      6221     TIP3     OH2      OT      -0.834000       15.9994           0
     50618 WT4      6221     TIP3     H1       HT       0.417000        1.0080           0
     50619 WT4      6221     TIP3     H2       HT       0.417000        1.0080           0
     50620 WT4      6225     TIP3     OH2      OT      -0.834000       15.9994           0
     50621 WT4      6225     TIP3     H1       HT       0.417000        1.0080           0
     50622 WT4      6225     TIP3     H2       HT       0.417000        1.0080           0
     50623 WT4      6238     TIP3     OH2      OT      -0.834000       15.9994           0
     50624 WT4      6238     TIP3     H1       HT       0.417000        1.0080           0
     50625 WT4      6238     TIP3     H2       HT       0.417000        1.0080           0
     50626 WT4      6240     TIP3     OH2      OT      -0.834000       15.9994           0
     50627 WT4      6240     TIP3     H1       HT       0.417000        1.0080           0
     50628 WT4      6240     TIP3     H2       HT       0.417000        1.0080           0
     50629 WT4      6241     TIP3     OH2      OT      -0.834000       15.9994           0
     50630 WT4      6241     TIP3     H1       HT       0.417000        1.0080           0
     50631 WT4      6241     TIP3     H2       HT       0.417000        1.0080           0
     50632 WT4      6242     TIP3     OH2      OT      -0.834000       15.9994           0
     50633 WT4      6242     TIP3     H1       HT       0.417000        1.0080           0
     50634 WT4      6242     TIP3     H2       HT       0.417000        1.0080           0
     50635 WT4      6243     TIP3     OH2      OT      -0.834000       15.9994           0
     50636 WT4      6243     TIP3     H1       HT       0.417000        1.0080           0
     50637 WT4      6243     TIP3     H2       HT       0.417000        1.0080           0
     50638 WT4      6245     TIP3     OH2      OT      -0.834000       15.9994           0
     50639 WT4      6245     TIP3     H1       HT       0.417000        1.0080           0
     50640 WT4      6245     TIP3     H2       HT       0.417000        1.0080           0
     50641 WT4      6246     TIP3     OH2      OT      -0.834000       15.9994           0
     50642 WT4      6246     TIP3     H1       HT       0.417000        1.0080           0
     50643 WT4      6246     TIP3     H2       HT       0.417000        1.0080           0
     50644 WT4      6256     TIP3     OH2      OT      -0.834000       15.9994           0
     50645 WT4      6256     TIP3     H1       HT       0.417000        1.0080           0
     50646 WT4      6256     TIP3     H2       HT       0.417000        1.0080           0
     50647 WT4      6258     TIP3     OH2      OT      -0.834000       15.9994           0
     50648 WT4      6258     TIP3     H1       HT       0.417000        1.0080           0
     50649 WT4      6258     TIP3     H2       HT       0.417000        1.0080           0
     50650 WT4      6259     TIP3     OH2      OT      -0.834000       15.9994           0
     50651 WT4      6259     TIP3     H1       HT       0.417000        1.0080           0
     50652 WT4      6259     TIP3     H2       HT       0.417000        1.0080           0
     50653 WT4      6261     TIP3     OH2      OT      -0.834000       15.9994           0
     50654 WT4      6261     TIP3     H1       HT       0.417000        1.0080           0
     50655 WT4      6261     TIP3     H2       HT       0.417000        1.0080           0
     50656 WT4      6263     TIP3     OH2      OT      -0.834000       15.9994           0
     50657 WT4      6263     TIP3     H1       HT       0.417000        1.0080           0
     50658 WT4      6263     TIP3     H2       HT       0.417000        1.0080           0
     50659 WT4      6264     TIP3     OH2      OT      -0.834000       15.9994           0
     50660 WT4      6264     TIP3     H1       HT       0.417000        1.0080           0
     50661 WT4      6264     TIP3     H2       HT       0.417000        1.0080           0
     50662 WT4      6266     TIP3     OH2      OT      -0.834000       15.9994           0
     50663 WT4      6266     TIP3     H1       HT       0.417000        1.0080           0
     50664 WT4      6266     TIP3     H2       HT       0.417000        1.0080           0
     50665 WT4      6269     TIP3     OH2      OT      -0.834000       15.9994           0
     50666 WT4      6269     TIP3     H1       HT       0.417000        1.0080           0
     50667 WT4      6269     TIP3     H2       HT       0.417000        1.0080           0
     50668 WT4      6281     TIP3     OH2      OT      -0.834000       15.9994           0
     50669 WT4      6281     TIP3     H1       HT       0.417000        1.0080           0
     50670 WT4      6281     TIP3     H2       HT       0.417000        1.0080           0
     50671 WT4      6283     TIP3     OH2      OT      -0.834000       15.9994           0
     50672 WT4      6283     TIP3     H1       HT       0.417000        1.0080           0
     50673 WT4      6283     TIP3     H2       HT       0.417000        1.0080           0
     50674 WT4      6284     TIP3     OH2      OT      -0.834000       15.9994           0
     50675 WT4      6284     TIP3     H1       HT       0.417000        1.0080           0
     50676 WT4      6284     TIP3     H2       HT       0.417000        1.0080           0
     50677 WT4      6285     TIP3     OH2      OT      -0.834000       15.9994           0
     50678 WT4      6285     TIP3     H1       HT       0.417000        1.0080           0
     50679 WT4      6285     TIP3     H2       HT       0.417000        1.0080           0
     50680 WT4      6286     TIP3     OH2      OT      -0.834000       15.9994           0
     50681 WT4      6286     TIP3     H1       HT       0.417000        1.0080           0
     50682 WT4      6286     TIP3     H2       HT       0.417000        1.0080           0
     50683 WT4      6287     TIP3     OH2      OT      -0.834000       15.9994           0
     50684 WT4      6287     TIP3     H1       HT       0.417000        1.0080           0
     50685 WT4      6287     TIP3     H2       HT       0.417000        1.0080           0
     50686 WT4      6288     TIP3     OH2      OT      -0.834000       15.9994           0
     50687 WT4      6288     TIP3     H1       HT       0.417000        1.0080           0
     50688 WT4      6288     TIP3     H2       HT       0.417000        1.0080           0
     50689 WT4      6297     TIP3     OH2      OT      -0.834000       15.9994           0
     50690 WT4      6297     TIP3     H1       HT       0.417000        1.0080           0
     50691 WT4      6297     TIP3     H2       HT       0.417000        1.0080           0
     50692 WT4      6303     TIP3     OH2      OT      -0.834000       15.9994           0
     50693 WT4      6303     TIP3     H1       HT       0.417000        1.0080           0
     50694 WT4      6303     TIP3     H2       HT       0.417000        1.0080           0
     50695 WT4      6304     TIP3     OH2      OT      -0.834000       15.9994           0
     50696 WT4      6304     TIP3     H1       HT       0.417000        1.0080           0
     50697 WT4      6304     TIP3     H2       HT       0.417000        1.0080           0
     50698 WT4      6309     TIP3     OH2      OT      -0.834000       15.9994           0
     50699 WT4      6309     TIP3     H1       HT       0.417000        1.0080           0
     50700 WT4      6309     TIP3     H2       HT       0.417000        1.0080           0
     50701 WT4      6311     TIP3     OH2      OT      -0.834000       15.9994           0
     50702 WT4      6311     TIP3     H1       HT       0.417000        1.0080           0
     50703 WT4      6311     TIP3     H2       HT       0.417000        1.0080           0
     50704 WT4      6319     TIP3     OH2      OT      -0.834000       15.9994           0
     50705 WT4      6319     TIP3     H1       HT       0.417000        1.0080           0
     50706 WT4      6319     TIP3     H2       HT       0.417000        1.0080           0
     50707 WT4      6321     TIP3     OH2      OT      -0.834000       15.9994           0
     50708 WT4      6321     TIP3     H1       HT       0.417000        1.0080           0
     50709 WT4      6321     TIP3     H2       HT       0.417000        1.0080           0
     50710 WT4      6322     TIP3     OH2      OT      -0.834000       15.9994           0
     50711 WT4      6322     TIP3     H1       HT       0.417000        1.0080           0
     50712 WT4      6322     TIP3     H2       HT       0.417000        1.0080           0
     50713 WT4      6325     TIP3     OH2      OT      -0.834000       15.9994           0
     50714 WT4      6325     TIP3     H1       HT       0.417000        1.0080           0
     50715 WT4      6325     TIP3     H2       HT       0.417000        1.0080           0
     50716 WT4      6327     TIP3     OH2      OT      -0.834000       15.9994           0
     50717 WT4      6327     TIP3     H1       HT       0.417000        1.0080           0
     50718 WT4      6327     TIP3     H2       HT       0.417000        1.0080           0
     50719 WT4      6328     TIP3     OH2      OT      -0.834000       15.9994           0
     50720 WT4      6328     TIP3     H1       HT       0.417000        1.0080           0
     50721 WT4      6328     TIP3     H2       HT       0.417000        1.0080           0
     50722 WT4      6329     TIP3     OH2      OT      -0.834000       15.9994           0
     50723 WT4      6329     TIP3     H1       HT       0.417000        1.0080           0
     50724 WT4      6329     TIP3     H2       HT       0.417000        1.0080           0
     50725 WT4      6345     TIP3     OH2      OT      -0.834000       15.9994           0
     50726 WT4      6345     TIP3     H1       HT       0.417000        1.0080           0
     50727 WT4      6345     TIP3     H2       HT       0.417000        1.0080           0
     50728 WT4      6357     TIP3     OH2      OT      -0.834000       15.9994           0
     50729 WT4      6357     TIP3     H1       HT       0.417000        1.0080           0
     50730 WT4      6357     TIP3     H2       HT       0.417000        1.0080           0
     50731 WT4      6364     TIP3     OH2      OT      -0.834000       15.9994           0
     50732 WT4      6364     TIP3     H1       HT       0.417000        1.0080           0
     50733 WT4      6364     TIP3     H2       HT       0.417000        1.0080           0
     50734 WT4      6369     TIP3     OH2      OT      -0.834000       15.9994           0
     50735 WT4      6369     TIP3     H1       HT       0.417000        1.0080           0
     50736 WT4      6369     TIP3     H2       HT       0.417000        1.0080           0
     50737 WT4      6381     TIP3     OH2      OT      -0.834000       15.9994           0
     50738 WT4      6381     TIP3     H1       HT       0.417000        1.0080           0
     50739 WT4      6381     TIP3     H2       HT       0.417000        1.0080           0
     50740 WT4      6390     TIP3     OH2      OT      -0.834000       15.9994           0
     50741 WT4      6390     TIP3     H1       HT       0.417000        1.0080           0
     50742 WT4      6390     TIP3     H2       HT       0.417000        1.0080           0
     50743 WT4      6536     TIP3     OH2      OT      -0.834000       15.9994           0
     50744 WT4      6536     TIP3     H1       HT       0.417000        1.0080           0
     50745 WT4      6536     TIP3     H2       HT       0.417000        1.0080           0
     50746 WT4      6551     TIP3     OH2      OT      -0.834000       15.9994           0
     50747 WT4      6551     TIP3     H1       HT       0.417000        1.0080           0
     50748 WT4      6551     TIP3     H2       HT       0.417000        1.0080           0
     50749 WT4      6555     TIP3     OH2      OT      -0.834000       15.9994           0
     50750 WT4      6555     TIP3     H1       HT       0.417000        1.0080           0
     50751 WT4      6555     TIP3     H2       HT       0.417000        1.0080           0
     50752 WT4      6575     TIP3     OH2      OT      -0.834000       15.9994           0
     50753 WT4      6575     TIP3     H1       HT       0.417000        1.0080           0
     50754 WT4      6575     TIP3     H2       HT       0.417000        1.0080           0
     50755 WT4      6577     TIP3     OH2      OT      -0.834000       15.9994           0
     50756 WT4      6577     TIP3     H1       HT       0.417000        1.0080           0
     50757 WT4      6577     TIP3     H2       HT       0.417000        1.0080           0
     50758 WT4      6578     TIP3     OH2      OT      -0.834000       15.9994           0
     50759 WT4      6578     TIP3     H1       HT       0.417000        1.0080           0
     50760 WT4      6578     TIP3     H2       HT       0.417000        1.0080           0
     50761 WT4      6579     TIP3     OH2      OT      -0.834000       15.9994           0
     50762 WT4      6579     TIP3     H1       HT       0.417000        1.0080           0
     50763 WT4      6579     TIP3     H2       HT       0.417000        1.0080           0
     50764 WT4      6595     TIP3     OH2      OT      -0.834000       15.9994           0
     50765 WT4      6595     TIP3     H1       HT       0.417000        1.0080           0
     50766 WT4      6595     TIP3     H2       HT       0.417000        1.0080           0
     50767 WT4      6597     TIP3     OH2      OT      -0.834000       15.9994           0
     50768 WT4      6597     TIP3     H1       HT       0.417000        1.0080           0
     50769 WT4      6597     TIP3     H2       HT       0.417000        1.0080           0
     50770 WT4      6602     TIP3     OH2      OT      -0.834000       15.9994           0
     50771 WT4      6602     TIP3     H1       HT       0.417000        1.0080           0
     50772 WT4      6602     TIP3     H2       HT       0.417000        1.0080           0
     50773 WT4      6603     TIP3     OH2      OT      -0.834000       15.9994           0
     50774 WT4      6603     TIP3     H1       HT       0.417000        1.0080           0
     50775 WT4      6603     TIP3     H2       HT       0.417000        1.0080           0
     50776 WT4      6615     TIP3     OH2      OT      -0.834000       15.9994           0
     50777 WT4      6615     TIP3     H1       HT       0.417000        1.0080           0
     50778 WT4      6615     TIP3     H2       HT       0.417000        1.0080           0
     50779 WT4      6616     TIP3     OH2      OT      -0.834000       15.9994           0
     50780 WT4      6616     TIP3     H1       HT       0.417000        1.0080           0
     50781 WT4      6616     TIP3     H2       HT       0.417000        1.0080           0
     50782 WT4      6618     TIP3     OH2      OT      -0.834000       15.9994           0
     50783 WT4      6618     TIP3     H1       HT       0.417000        1.0080           0
     50784 WT4      6618     TIP3     H2       HT       0.417000        1.0080           0
     50785 WT4      6620     TIP3     OH2      OT      -0.834000       15.9994           0
     50786 WT4      6620     TIP3     H1       HT       0.417000        1.0080           0
     50787 WT4      6620     TIP3     H2       HT       0.417000        1.0080           0
     50788 WT4      6621     TIP3     OH2      OT      -0.834000       15.9994           0
     50789 WT4      6621     TIP3     H1       HT       0.417000        1.0080           0
     50790 WT4      6621     TIP3     H2       HT       0.417000        1.0080           0
     50791 WT4      6623     TIP3     OH2      OT      -0.834000       15.9994           0
     50792 WT4      6623     TIP3     H1       HT       0.417000        1.0080           0
     50793 WT4      6623     TIP3     H2       HT       0.417000        1.0080           0
     50794 WT4      6637     TIP3     OH2      OT      -0.834000       15.9994           0
     50795 WT4      6637     TIP3     H1       HT       0.417000        1.0080           0
     50796 WT4      6637     TIP3     H2       HT       0.417000        1.0080           0
     50797 WT4      6639     TIP3     OH2      OT      -0.834000       15.9994           0
     50798 WT4      6639     TIP3     H1       HT       0.417000        1.0080           0
     50799 WT4      6639     TIP3     H2       HT       0.417000        1.0080           0
     50800 WT4      6640     TIP3     OH2      OT      -0.834000       15.9994           0
     50801 WT4      6640     TIP3     H1       HT       0.417000        1.0080           0
     50802 WT4      6640     TIP3     H2       HT       0.417000        1.0080           0
     50803 WT4      6641     TIP3     OH2      OT      -0.834000       15.9994           0
     50804 WT4      6641     TIP3     H1       HT       0.417000        1.0080           0
     50805 WT4      6641     TIP3     H2       HT       0.417000        1.0080           0
     50806 WT4      6645     TIP3     OH2      OT      -0.834000       15.9994           0
     50807 WT4      6645     TIP3     H1       HT       0.417000        1.0080           0
     50808 WT4      6645     TIP3     H2       HT       0.417000        1.0080           0
     50809 WT4      6659     TIP3     OH2      OT      -0.834000       15.9994           0
     50810 WT4      6659     TIP3     H1       HT       0.417000        1.0080           0
     50811 WT4      6659     TIP3     H2       HT       0.417000        1.0080           0
     50812 WT4      6660     TIP3     OH2      OT      -0.834000       15.9994           0
     50813 WT4      6660     TIP3     H1       HT       0.417000        1.0080           0
     50814 WT4      6660     TIP3     H2       HT       0.417000        1.0080           0
     50815 WT4      6661     TIP3     OH2      OT      -0.834000       15.9994           0
     50816 WT4      6661     TIP3     H1       HT       0.417000        1.0080           0
     50817 WT4      6661     TIP3     H2       HT       0.417000        1.0080           0
     50818 WT4      6662     TIP3     OH2      OT      -0.834000       15.9994           0
     50819 WT4      6662     TIP3     H1       HT       0.417000        1.0080           0
     50820 WT4      6662     TIP3     H2       HT       0.417000        1.0080           0
     50821 WT4      6664     TIP3     OH2      OT      -0.834000       15.9994           0
     50822 WT4      6664     TIP3     H1       HT       0.417000        1.0080           0
     50823 WT4      6664     TIP3     H2       HT       0.417000        1.0080           0
     50824 WT4      6671     TIP3     OH2      OT      -0.834000       15.9994           0
     50825 WT4      6671     TIP3     H1       HT       0.417000        1.0080           0
     50826 WT4      6671     TIP3     H2       HT       0.417000        1.0080           0
     50827 WT4      6679     TIP3     OH2      OT      -0.834000       15.9994           0
     50828 WT4      6679     TIP3     H1       HT       0.417000        1.0080           0
     50829 WT4      6679     TIP3     H2       HT       0.417000        1.0080           0
     50830 WT4      6681     TIP3     OH2      OT      -0.834000       15.9994           0
     50831 WT4      6681     TIP3     H1       HT       0.417000        1.0080           0
     50832 WT4      6681     TIP3     H2       HT       0.417000        1.0080           0
     50833 WT4      6684     TIP3     OH2      OT      -0.834000       15.9994           0
     50834 WT4      6684     TIP3     H1       HT       0.417000        1.0080           0
     50835 WT4      6684     TIP3     H2       HT       0.417000        1.0080           0
     50836 WT4      6685     TIP3     OH2      OT      -0.834000       15.9994           0
     50837 WT4      6685     TIP3     H1       HT       0.417000        1.0080           0
     50838 WT4      6685     TIP3     H2       HT       0.417000        1.0080           0
     50839 WT4      6686     TIP3     OH2      OT      -0.834000       15.9994           0
     50840 WT4      6686     TIP3     H1       HT       0.417000        1.0080           0
     50841 WT4      6686     TIP3     H2       HT       0.417000        1.0080           0
     50842 WT4      6698     TIP3     OH2      OT      -0.834000       15.9994           0
     50843 WT4      6698     TIP3     H1       HT       0.417000        1.0080           0
     50844 WT4      6698     TIP3     H2       HT       0.417000        1.0080           0
     50845 WT4      6700     TIP3     OH2      OT      -0.834000       15.9994           0
     50846 WT4      6700     TIP3     H1       HT       0.417000        1.0080           0
     50847 WT4      6700     TIP3     H2       HT       0.417000        1.0080           0
     50848 WT4      6701     TIP3     OH2      OT      -0.834000       15.9994           0
     50849 WT4      6701     TIP3     H1       HT       0.417000        1.0080           0
     50850 WT4      6701     TIP3     H2       HT       0.417000        1.0080           0
     50851 WT4      6703     TIP3     OH2      OT      -0.834000       15.9994           0
     50852 WT4      6703     TIP3     H1       HT       0.417000        1.0080           0
     50853 WT4      6703     TIP3     H2       HT       0.417000        1.0080           0
     50854 WT4      6704     TIP3     OH2      OT      -0.834000       15.9994           0
     50855 WT4      6704     TIP3     H1       HT       0.417000        1.0080           0
     50856 WT4      6704     TIP3     H2       HT       0.417000        1.0080           0
     50857 WT4      6705     TIP3     OH2      OT      -0.834000       15.9994           0
     50858 WT4      6705     TIP3     H1       HT       0.417000        1.0080           0
     50859 WT4      6705     TIP3     H2       HT       0.417000        1.0080           0
     50860 WT4      6706     TIP3     OH2      OT      -0.834000       15.9994           0
     50861 WT4      6706     TIP3     H1       HT       0.417000        1.0080           0
     50862 WT4      6706     TIP3     H2       HT       0.417000        1.0080           0
     50863 WT4      6708     TIP3     OH2      OT      -0.834000       15.9994           0
     50864 WT4      6708     TIP3     H1       HT       0.417000        1.0080           0
     50865 WT4      6708     TIP3     H2       HT       0.417000        1.0080           0
     50866 WT4      6721     TIP3     OH2      OT      -0.834000       15.9994           0
     50867 WT4      6721     TIP3     H1       HT       0.417000        1.0080           0
     50868 WT4      6721     TIP3     H2       HT       0.417000        1.0080           0
     50869 WT4      6725     TIP3     OH2      OT      -0.834000       15.9994           0
     50870 WT4      6725     TIP3     H1       HT       0.417000        1.0080           0
     50871 WT4      6725     TIP3     H2       HT       0.417000        1.0080           0
     50872 WT4      6726     TIP3     OH2      OT      -0.834000       15.9994           0
     50873 WT4      6726     TIP3     H1       HT       0.417000        1.0080           0
     50874 WT4      6726     TIP3     H2       HT       0.417000        1.0080           0
     50875 WT4      6727     TIP3     OH2      OT      -0.834000       15.9994           0
     50876 WT4      6727     TIP3     H1       HT       0.417000        1.0080           0
     50877 WT4      6727     TIP3     H2       HT       0.417000        1.0080           0
     50878 WT4      6729     TIP3     OH2      OT      -0.834000       15.9994           0
     50879 WT4      6729     TIP3     H1       HT       0.417000        1.0080           0
     50880 WT4      6729     TIP3     H2       HT       0.417000        1.0080           0
     50881 WT4      6730     TIP3     OH2      OT      -0.834000       15.9994           0
     50882 WT4      6730     TIP3     H1       HT       0.417000        1.0080           0
     50883 WT4      6730     TIP3     H2       HT       0.417000        1.0080           0
     50884 WT4      6731     TIP3     OH2      OT      -0.834000       15.9994           0
     50885 WT4      6731     TIP3     H1       HT       0.417000        1.0080           0
     50886 WT4      6731     TIP3     H2       HT       0.417000        1.0080           0
     50887 WT4      6740     TIP3     OH2      OT      -0.834000       15.9994           0
     50888 WT4      6740     TIP3     H1       HT       0.417000        1.0080           0
     50889 WT4      6740     TIP3     H2       HT       0.417000        1.0080           0
     50890 WT4      6742     TIP3     OH2      OT      -0.834000       15.9994           0
     50891 WT4      6742     TIP3     H1       HT       0.417000        1.0080           0
     50892 WT4      6742     TIP3     H2       HT       0.417000        1.0080           0
     50893 WT4      6743     TIP3     OH2      OT      -0.834000       15.9994           0
     50894 WT4      6743     TIP3     H1       HT       0.417000        1.0080           0
     50895 WT4      6743     TIP3     H2       HT       0.417000        1.0080           0
     50896 WT4      6745     TIP3     OH2      OT      -0.834000       15.9994           0
     50897 WT4      6745     TIP3     H1       HT       0.417000        1.0080           0
     50898 WT4      6745     TIP3     H2       HT       0.417000        1.0080           0
     50899 WT4      6750     TIP3     OH2      OT      -0.834000       15.9994           0
     50900 WT4      6750     TIP3     H1       HT       0.417000        1.0080           0
     50901 WT4      6750     TIP3     H2       HT       0.417000        1.0080           0
     50902 WT4      6763     TIP3     OH2      OT      -0.834000       15.9994           0
     50903 WT4      6763     TIP3     H1       HT       0.417000        1.0080           0
     50904 WT4      6763     TIP3     H2       HT       0.417000        1.0080           0
     50905 WT4      6765     TIP3     OH2      OT      -0.834000       15.9994           0
     50906 WT4      6765     TIP3     H1       HT       0.417000        1.0080           0
     50907 WT4      6765     TIP3     H2       HT       0.417000        1.0080           0
     50908 WT4      6767     TIP3     OH2      OT      -0.834000       15.9994           0
     50909 WT4      6767     TIP3     H1       HT       0.417000        1.0080           0
     50910 WT4      6767     TIP3     H2       HT       0.417000        1.0080           0
     50911 WT4      6769     TIP3     OH2      OT      -0.834000       15.9994           0
     50912 WT4      6769     TIP3     H1       HT       0.417000        1.0080           0
     50913 WT4      6769     TIP3     H2       HT       0.417000        1.0080           0
     50914 WT4      6770     TIP3     OH2      OT      -0.834000       15.9994           0
     50915 WT4      6770     TIP3     H1       HT       0.417000        1.0080           0
     50916 WT4      6770     TIP3     H2       HT       0.417000        1.0080           0
     50917 WT4      6771     TIP3     OH2      OT      -0.834000       15.9994           0
     50918 WT4      6771     TIP3     H1       HT       0.417000        1.0080           0
     50919 WT4      6771     TIP3     H2       HT       0.417000        1.0080           0
     50920 WT4      6786     TIP3     OH2      OT      -0.834000       15.9994           0
     50921 WT4      6786     TIP3     H1       HT       0.417000        1.0080           0
     50922 WT4      6786     TIP3     H2       HT       0.417000        1.0080           0
     50923 WT4      6813     TIP3     OH2      OT      -0.834000       15.9994           0
     50924 WT4      6813     TIP3     H1       HT       0.417000        1.0080           0
     50925 WT4      6813     TIP3     H2       HT       0.417000        1.0080           0
     50926 WT4      6825     TIP3     OH2      OT      -0.834000       15.9994           0
     50927 WT4      6825     TIP3     H1       HT       0.417000        1.0080           0
     50928 WT4      6825     TIP3     H2       HT       0.417000        1.0080           0
     50929 WT4      6855     TIP3     OH2      OT      -0.834000       15.9994           0
     50930 WT4      6855     TIP3     H1       HT       0.417000        1.0080           0
     50931 WT4      6855     TIP3     H2       HT       0.417000        1.0080           0
     50932 WT4      6857     TIP3     OH2      OT      -0.834000       15.9994           0
     50933 WT4      6857     TIP3     H1       HT       0.417000        1.0080           0
     50934 WT4      6857     TIP3     H2       HT       0.417000        1.0080           0
     50935 WT4      6952     TIP3     OH2      OT      -0.834000       15.9994           0
     50936 WT4      6952     TIP3     H1       HT       0.417000        1.0080           0
     50937 WT4      6952     TIP3     H2       HT       0.417000        1.0080           0
     50938 WT4      6953     TIP3     OH2      OT      -0.834000       15.9994           0
     50939 WT4      6953     TIP3     H1       HT       0.417000        1.0080           0
     50940 WT4      6953     TIP3     H2       HT       0.417000        1.0080           0
     50941 WT4      6955     TIP3     OH2      OT      -0.834000       15.9994           0
     50942 WT4      6955     TIP3     H1       HT       0.417000        1.0080           0
     50943 WT4      6955     TIP3     H2       HT       0.417000        1.0080           0
     50944 WT4      6975     TIP3     OH2      OT      -0.834000       15.9994           0
     50945 WT4      6975     TIP3     H1       HT       0.417000        1.0080           0
     50946 WT4      6975     TIP3     H2       HT       0.417000        1.0080           0
     50947 WT4      7017     TIP3     OH2      OT      -0.834000       15.9994           0
     50948 WT4      7017     TIP3     H1       HT       0.417000        1.0080           0
     50949 WT4      7017     TIP3     H2       HT       0.417000        1.0080           0
     50950 WT4      7019     TIP3     OH2      OT      -0.834000       15.9994           0
     50951 WT4      7019     TIP3     H1       HT       0.417000        1.0080           0
     50952 WT4      7019     TIP3     H2       HT       0.417000        1.0080           0
     50953 WT4      7020     TIP3     OH2      OT      -0.834000       15.9994           0
     50954 WT4      7020     TIP3     H1       HT       0.417000        1.0080           0
     50955 WT4      7020     TIP3     H2       HT       0.417000        1.0080           0
     50956 WT4      7021     TIP3     OH2      OT      -0.834000       15.9994           0
     50957 WT4      7021     TIP3     H1       HT       0.417000        1.0080           0
     50958 WT4      7021     TIP3     H2       HT       0.417000        1.0080           0
     50959 WT4      7023     TIP3     OH2      OT      -0.834000       15.9994           0
     50960 WT4      7023     TIP3     H1       HT       0.417000        1.0080           0
     50961 WT4      7023     TIP3     H2       HT       0.417000        1.0080           0
     50962 WT4      7040     TIP3     OH2      OT      -0.834000       15.9994           0
     50963 WT4      7040     TIP3     H1       HT       0.417000        1.0080           0
     50964 WT4      7040     TIP3     H2       HT       0.417000        1.0080           0
     50965 WT4      7041     TIP3     OH2      OT      -0.834000       15.9994           0
     50966 WT4      7041     TIP3     H1       HT       0.417000        1.0080           0
     50967 WT4      7041     TIP3     H2       HT       0.417000        1.0080           0
     50968 WT4      7042     TIP3     OH2      OT      -0.834000       15.9994           0
     50969 WT4      7042     TIP3     H1       HT       0.417000        1.0080           0
     50970 WT4      7042     TIP3     H2       HT       0.417000        1.0080           0
     50971 WT4      7043     TIP3     OH2      OT      -0.834000       15.9994           0
     50972 WT4      7043     TIP3     H1       HT       0.417000        1.0080           0
     50973 WT4      7043     TIP3     H2       HT       0.417000        1.0080           0
     50974 WT4      7052     TIP3     OH2      OT      -0.834000       15.9994           0
     50975 WT4      7052     TIP3     H1       HT       0.417000        1.0080           0
     50976 WT4      7052     TIP3     H2       HT       0.417000        1.0080           0
     50977 WT4      7058     TIP3     OH2      OT      -0.834000       15.9994           0
     50978 WT4      7058     TIP3     H1       HT       0.417000        1.0080           0
     50979 WT4      7058     TIP3     H2       HT       0.417000        1.0080           0
     50980 WT4      7059     TIP3     OH2      OT      -0.834000       15.9994           0
     50981 WT4      7059     TIP3     H1       HT       0.417000        1.0080           0
     50982 WT4      7059     TIP3     H2       HT       0.417000        1.0080           0
     50983 WT4      7062     TIP3     OH2      OT      -0.834000       15.9994           0
     50984 WT4      7062     TIP3     H1       HT       0.417000        1.0080           0
     50985 WT4      7062     TIP3     H2       HT       0.417000        1.0080           0
     50986 WT4      7063     TIP3     OH2      OT      -0.834000       15.9994           0
     50987 WT4      7063     TIP3     H1       HT       0.417000        1.0080           0
     50988 WT4      7063     TIP3     H2       HT       0.417000        1.0080           0
     50989 WT4      7065     TIP3     OH2      OT      -0.834000       15.9994           0
     50990 WT4      7065     TIP3     H1       HT       0.417000        1.0080           0
     50991 WT4      7065     TIP3     H2       HT       0.417000        1.0080           0
     50992 WT4      7076     TIP3     OH2      OT      -0.834000       15.9994           0
     50993 WT4      7076     TIP3     H1       HT       0.417000        1.0080           0
     50994 WT4      7076     TIP3     H2       HT       0.417000        1.0080           0
     50995 WT4      7078     TIP3     OH2      OT      -0.834000       15.9994           0
     50996 WT4      7078     TIP3     H1       HT       0.417000        1.0080           0
     50997 WT4      7078     TIP3     H2       HT       0.417000        1.0080           0
     50998 WT4      7081     TIP3     OH2      OT      -0.834000       15.9994           0
     50999 WT4      7081     TIP3     H1       HT       0.417000        1.0080           0
     51000 WT4      7081     TIP3     H2       HT       0.417000        1.0080           0
     51001 WT4      7083     TIP3     OH2      OT      -0.834000       15.9994           0
     51002 WT4      7083     TIP3     H1       HT       0.417000        1.0080           0
     51003 WT4      7083     TIP3     H2       HT       0.417000        1.0080           0
     51004 WT4      7100     TIP3     OH2      OT      -0.834000       15.9994           0
     51005 WT4      7100     TIP3     H1       HT       0.417000        1.0080           0
     51006 WT4      7100     TIP3     H2       HT       0.417000        1.0080           0
     51007 WT4      7101     TIP3     OH2      OT      -0.834000       15.9994           0
     51008 WT4      7101     TIP3     H1       HT       0.417000        1.0080           0
     51009 WT4      7101     TIP3     H2       HT       0.417000        1.0080           0
     51010 WT4      7102     TIP3     OH2      OT      -0.834000       15.9994           0
     51011 WT4      7102     TIP3     H1       HT       0.417000        1.0080           0
     51012 WT4      7102     TIP3     H2       HT       0.417000        1.0080           0
     51013 WT4      7104     TIP3     OH2      OT      -0.834000       15.9994           0
     51014 WT4      7104     TIP3     H1       HT       0.417000        1.0080           0
     51015 WT4      7104     TIP3     H2       HT       0.417000        1.0080           0
     51016 WT4      7120     TIP3     OH2      OT      -0.834000       15.9994           0
     51017 WT4      7120     TIP3     H1       HT       0.417000        1.0080           0
     51018 WT4      7120     TIP3     H2       HT       0.417000        1.0080           0
     51019 WT4      7121     TIP3     OH2      OT      -0.834000       15.9994           0
     51020 WT4      7121     TIP3     H1       HT       0.417000        1.0080           0
     51021 WT4      7121     TIP3     H2       HT       0.417000        1.0080           0
     51022 WT4      7122     TIP3     OH2      OT      -0.834000       15.9994           0
     51023 WT4      7122     TIP3     H1       HT       0.417000        1.0080           0
     51024 WT4      7122     TIP3     H2       HT       0.417000        1.0080           0
     51025 WT4      7123     TIP3     OH2      OT      -0.834000       15.9994           0
     51026 WT4      7123     TIP3     H1       HT       0.417000        1.0080           0
     51027 WT4      7123     TIP3     H2       HT       0.417000        1.0080           0
     51028 WT4      7128     TIP3     OH2      OT      -0.834000       15.9994           0
     51029 WT4      7128     TIP3     H1       HT       0.417000        1.0080           0
     51030 WT4      7128     TIP3     H2       HT       0.417000        1.0080           0
     51031 WT4      7132     TIP3     OH2      OT      -0.834000       15.9994           0
     51032 WT4      7132     TIP3     H1       HT       0.417000        1.0080           0
     51033 WT4      7132     TIP3     H2       HT       0.417000        1.0080           0
     51034 WT4      7141     TIP3     OH2      OT      -0.834000       15.9994           0
     51035 WT4      7141     TIP3     H1       HT       0.417000        1.0080           0
     51036 WT4      7141     TIP3     H2       HT       0.417000        1.0080           0
     51037 WT4      7142     TIP3     OH2      OT      -0.834000       15.9994           0
     51038 WT4      7142     TIP3     H1       HT       0.417000        1.0080           0
     51039 WT4      7142     TIP3     H2       HT       0.417000        1.0080           0
     51040 WT4      7143     TIP3     OH2      OT      -0.834000       15.9994           0
     51041 WT4      7143     TIP3     H1       HT       0.417000        1.0080           0
     51042 WT4      7143     TIP3     H2       HT       0.417000        1.0080           0
     51043 WT4      7144     TIP3     OH2      OT      -0.834000       15.9994           0
     51044 WT4      7144     TIP3     H1       HT       0.417000        1.0080           0
     51045 WT4      7144     TIP3     H2       HT       0.417000        1.0080           0
     51046 WT4      7145     TIP3     OH2      OT      -0.834000       15.9994           0
     51047 WT4      7145     TIP3     H1       HT       0.417000        1.0080           0
     51048 WT4      7145     TIP3     H2       HT       0.417000        1.0080           0
     51049 WT4      7146     TIP3     OH2      OT      -0.834000       15.9994           0
     51050 WT4      7146     TIP3     H1       HT       0.417000        1.0080           0
     51051 WT4      7146     TIP3     H2       HT       0.417000        1.0080           0
     51052 WT4      7148     TIP3     OH2      OT      -0.834000       15.9994           0
     51053 WT4      7148     TIP3     H1       HT       0.417000        1.0080           0
     51054 WT4      7148     TIP3     H2       HT       0.417000        1.0080           0
     51055 WT4      7166     TIP3     OH2      OT      -0.834000       15.9994           0
     51056 WT4      7166     TIP3     H1       HT       0.417000        1.0080           0
     51057 WT4      7166     TIP3     H2       HT       0.417000        1.0080           0
     51058 WT4      7181     TIP3     OH2      OT      -0.834000       15.9994           0
     51059 WT4      7181     TIP3     H1       HT       0.417000        1.0080           0
     51060 WT4      7181     TIP3     H2       HT       0.417000        1.0080           0
     51061 WT4      7182     TIP3     OH2      OT      -0.834000       15.9994           0
     51062 WT4      7182     TIP3     H1       HT       0.417000        1.0080           0
     51063 WT4      7182     TIP3     H2       HT       0.417000        1.0080           0
     51064 WT4      7183     TIP3     OH2      OT      -0.834000       15.9994           0
     51065 WT4      7183     TIP3     H1       HT       0.417000        1.0080           0
     51066 WT4      7183     TIP3     H2       HT       0.417000        1.0080           0
     51067 WT4      7185     TIP3     OH2      OT      -0.834000       15.9994           0
     51068 WT4      7185     TIP3     H1       HT       0.417000        1.0080           0
     51069 WT4      7185     TIP3     H2       HT       0.417000        1.0080           0
     51070 WT4      7186     TIP3     OH2      OT      -0.834000       15.9994           0
     51071 WT4      7186     TIP3     H1       HT       0.417000        1.0080           0
     51072 WT4      7186     TIP3     H2       HT       0.417000        1.0080           0
     51073 WT4      7189     TIP3     OH2      OT      -0.834000       15.9994           0
     51074 WT4      7189     TIP3     H1       HT       0.417000        1.0080           0
     51075 WT4      7189     TIP3     H2       HT       0.417000        1.0080           0
     51076 WT4      7191     TIP3     OH2      OT      -0.834000       15.9994           0
     51077 WT4      7191     TIP3     H1       HT       0.417000        1.0080           0
     51078 WT4      7191     TIP3     H2       HT       0.417000        1.0080           0
     51079 WT4      7200     TIP3     OH2      OT      -0.834000       15.9994           0
     51080 WT4      7200     TIP3     H1       HT       0.417000        1.0080           0
     51081 WT4      7200     TIP3     H2       HT       0.417000        1.0080           0
     51082 WT4      7206     TIP3     OH2      OT      -0.834000       15.9994           0
     51083 WT4      7206     TIP3     H1       HT       0.417000        1.0080           0
     51084 WT4      7206     TIP3     H2       HT       0.417000        1.0080           0
     51085 WT4      7209     TIP3     OH2      OT      -0.834000       15.9994           0
     51086 WT4      7209     TIP3     H1       HT       0.417000        1.0080           0
     51087 WT4      7209     TIP3     H2       HT       0.417000        1.0080           0
     51088 WT4      7210     TIP3     OH2      OT      -0.834000       15.9994           0
     51089 WT4      7210     TIP3     H1       HT       0.417000        1.0080           0
     51090 WT4      7210     TIP3     H2       HT       0.417000        1.0080           0
     51091 WT4      7211     TIP3     OH2      OT      -0.834000       15.9994           0
     51092 WT4      7211     TIP3     H1       HT       0.417000        1.0080           0
     51093 WT4      7211     TIP3     H2       HT       0.417000        1.0080           0
     51094 WT4      7213     TIP3     OH2      OT      -0.834000       15.9994           0
     51095 WT4      7213     TIP3     H1       HT       0.417000        1.0080           0
     51096 WT4      7213     TIP3     H2       HT       0.417000        1.0080           0
     51097 WT4      7222     TIP3     OH2      OT      -0.834000       15.9994           0
     51098 WT4      7222     TIP3     H1       HT       0.417000        1.0080           0
     51099 WT4      7222     TIP3     H2       HT       0.417000        1.0080           0
     51100 WT4      7227     TIP3     OH2      OT      -0.834000       15.9994           0
     51101 WT4      7227     TIP3     H1       HT       0.417000        1.0080           0
     51102 WT4      7227     TIP3     H2       HT       0.417000        1.0080           0
     51103 WT4      7228     TIP3     OH2      OT      -0.834000       15.9994           0
     51104 WT4      7228     TIP3     H1       HT       0.417000        1.0080           0
     51105 WT4      7228     TIP3     H2       HT       0.417000        1.0080           0
     51106 WT4      7229     TIP3     OH2      OT      -0.834000       15.9994           0
     51107 WT4      7229     TIP3     H1       HT       0.417000        1.0080           0
     51108 WT4      7229     TIP3     H2       HT       0.417000        1.0080           0
     51109 WT4      7249     TIP3     OH2      OT      -0.834000       15.9994           0
     51110 WT4      7249     TIP3     H1       HT       0.417000        1.0080           0
     51111 WT4      7249     TIP3     H2       HT       0.417000        1.0080           0
     51112 WT4      7254     TIP3     OH2      OT      -0.834000       15.9994           0
     51113 WT4      7254     TIP3     H1       HT       0.417000        1.0080           0
     51114 WT4      7254     TIP3     H2       HT       0.417000        1.0080           0
     51115 WT4      7264     TIP3     OH2      OT      -0.834000       15.9994           0
     51116 WT4      7264     TIP3     H1       HT       0.417000        1.0080           0
     51117 WT4      7264     TIP3     H2       HT       0.417000        1.0080           0
     51118 WT4      7270     TIP3     OH2      OT      -0.834000       15.9994           0
     51119 WT4      7270     TIP3     H1       HT       0.417000        1.0080           0
     51120 WT4      7270     TIP3     H2       HT       0.417000        1.0080           0
     51121 WT4      7398     TIP3     OH2      OT      -0.834000       15.9994           0
     51122 WT4      7398     TIP3     H1       HT       0.417000        1.0080           0
     51123 WT4      7398     TIP3     H2       HT       0.417000        1.0080           0
     51124 WT4      7415     TIP3     OH2      OT      -0.834000       15.9994           0
     51125 WT4      7415     TIP3     H1       HT       0.417000        1.0080           0
     51126 WT4      7415     TIP3     H2       HT       0.417000        1.0080           0
     51127 WT4      7418     TIP3     OH2      OT      -0.834000       15.9994           0
     51128 WT4      7418     TIP3     H1       HT       0.417000        1.0080           0
     51129 WT4      7418     TIP3     H2       HT       0.417000        1.0080           0
     51130 WT4      7435     TIP3     OH2      OT      -0.834000       15.9994           0
     51131 WT4      7435     TIP3     H1       HT       0.417000        1.0080           0
     51132 WT4      7435     TIP3     H2       HT       0.417000        1.0080           0
     51133 WT4      7437     TIP3     OH2      OT      -0.834000       15.9994           0
     51134 WT4      7437     TIP3     H1       HT       0.417000        1.0080           0
     51135 WT4      7437     TIP3     H2       HT       0.417000        1.0080           0
     51136 WT4      7439     TIP3     OH2      OT      -0.834000       15.9994           0
     51137 WT4      7439     TIP3     H1       HT       0.417000        1.0080           0
     51138 WT4      7439     TIP3     H2       HT       0.417000        1.0080           0
     51139 WT4      7455     TIP3     OH2      OT      -0.834000       15.9994           0
     51140 WT4      7455     TIP3     H1       HT       0.417000        1.0080           0
     51141 WT4      7455     TIP3     H2       HT       0.417000        1.0080           0
     51142 WT4      7461     TIP3     OH2      OT      -0.834000       15.9994           0
     51143 WT4      7461     TIP3     H1       HT       0.417000        1.0080           0
     51144 WT4      7461     TIP3     H2       HT       0.417000        1.0080           0
     51145 WT4      7479     TIP3     OH2      OT      -0.834000       15.9994           0
     51146 WT4      7479     TIP3     H1       HT       0.417000        1.0080           0
     51147 WT4      7479     TIP3     H2       HT       0.417000        1.0080           0
     51148 WT4      7480     TIP3     OH2      OT      -0.834000       15.9994           0
     51149 WT4      7480     TIP3     H1       HT       0.417000        1.0080           0
     51150 WT4      7480     TIP3     H2       HT       0.417000        1.0080           0
     51151 WT4      7481     TIP3     OH2      OT      -0.834000       15.9994           0
     51152 WT4      7481     TIP3     H1       HT       0.417000        1.0080           0
     51153 WT4      7481     TIP3     H2       HT       0.417000        1.0080           0
     51154 WT4      7483     TIP3     OH2      OT      -0.834000       15.9994           0
     51155 WT4      7483     TIP3     H1       HT       0.417000        1.0080           0
     51156 WT4      7483     TIP3     H2       HT       0.417000        1.0080           0
     51157 WT4      7493     TIP3     OH2      OT      -0.834000       15.9994           0
     51158 WT4      7493     TIP3     H1       HT       0.417000        1.0080           0
     51159 WT4      7493     TIP3     H2       HT       0.417000        1.0080           0
     51160 WT4      7498     TIP3     OH2      OT      -0.834000       15.9994           0
     51161 WT4      7498     TIP3     H1       HT       0.417000        1.0080           0
     51162 WT4      7498     TIP3     H2       HT       0.417000        1.0080           0
     51163 WT4      7500     TIP3     OH2      OT      -0.834000       15.9994           0
     51164 WT4      7500     TIP3     H1       HT       0.417000        1.0080           0
     51165 WT4      7500     TIP3     H2       HT       0.417000        1.0080           0
     51166 WT4      7501     TIP3     OH2      OT      -0.834000       15.9994           0
     51167 WT4      7501     TIP3     H1       HT       0.417000        1.0080           0
     51168 WT4      7501     TIP3     H2       HT       0.417000        1.0080           0
     51169 WT4      7503     TIP3     OH2      OT      -0.834000       15.9994           0
     51170 WT4      7503     TIP3     H1       HT       0.417000        1.0080           0
     51171 WT4      7503     TIP3     H2       HT       0.417000        1.0080           0
     51172 WT4      7504     TIP3     OH2      OT      -0.834000       15.9994           0
     51173 WT4      7504     TIP3     H1       HT       0.417000        1.0080           0
     51174 WT4      7504     TIP3     H2       HT       0.417000        1.0080           0
     51175 WT4      7506     TIP3     OH2      OT      -0.834000       15.9994           0
     51176 WT4      7506     TIP3     H1       HT       0.417000        1.0080           0
     51177 WT4      7506     TIP3     H2       HT       0.417000        1.0080           0
     51178 WT4      7510     TIP3     OH2      OT      -0.834000       15.9994           0
     51179 WT4      7510     TIP3     H1       HT       0.417000        1.0080           0
     51180 WT4      7510     TIP3     H2       HT       0.417000        1.0080           0
     51181 WT4      7519     TIP3     OH2      OT      -0.834000       15.9994           0
     51182 WT4      7519     TIP3     H1       HT       0.417000        1.0080           0
     51183 WT4      7519     TIP3     H2       HT       0.417000        1.0080           0
     51184 WT4      7522     TIP3     OH2      OT      -0.834000       15.9994           0
     51185 WT4      7522     TIP3     H1       HT       0.417000        1.0080           0
     51186 WT4      7522     TIP3     H2       HT       0.417000        1.0080           0
     51187 WT4      7523     TIP3     OH2      OT      -0.834000       15.9994           0
     51188 WT4      7523     TIP3     H1       HT       0.417000        1.0080           0
     51189 WT4      7523     TIP3     H2       HT       0.417000        1.0080           0
     51190 WT4      7525     TIP3     OH2      OT      -0.834000       15.9994           0
     51191 WT4      7525     TIP3     H1       HT       0.417000        1.0080           0
     51192 WT4      7525     TIP3     H2       HT       0.417000        1.0080           0
     51193 WT4      7526     TIP3     OH2      OT      -0.834000       15.9994           0
     51194 WT4      7526     TIP3     H1       HT       0.417000        1.0080           0
     51195 WT4      7526     TIP3     H2       HT       0.417000        1.0080           0
     51196 WT4      7527     TIP3     OH2      OT      -0.834000       15.9994           0
     51197 WT4      7527     TIP3     H1       HT       0.417000        1.0080           0
     51198 WT4      7527     TIP3     H2       HT       0.417000        1.0080           0
     51199 WT4      7528     TIP3     OH2      OT      -0.834000       15.9994           0
     51200 WT4      7528     TIP3     H1       HT       0.417000        1.0080           0
     51201 WT4      7528     TIP3     H2       HT       0.417000        1.0080           0
     51202 WT4      7541     TIP3     OH2      OT      -0.834000       15.9994           0
     51203 WT4      7541     TIP3     H1       HT       0.417000        1.0080           0
     51204 WT4      7541     TIP3     H2       HT       0.417000        1.0080           0
     51205 WT4      7544     TIP3     OH2      OT      -0.834000       15.9994           0
     51206 WT4      7544     TIP3     H1       HT       0.417000        1.0080           0
     51207 WT4      7544     TIP3     H2       HT       0.417000        1.0080           0
     51208 WT4      7561     TIP3     OH2      OT      -0.834000       15.9994           0
     51209 WT4      7561     TIP3     H1       HT       0.417000        1.0080           0
     51210 WT4      7561     TIP3     H2       HT       0.417000        1.0080           0
     51211 WT4      7563     TIP3     OH2      OT      -0.834000       15.9994           0
     51212 WT4      7563     TIP3     H1       HT       0.417000        1.0080           0
     51213 WT4      7563     TIP3     H2       HT       0.417000        1.0080           0
     51214 WT4      7564     TIP3     OH2      OT      -0.834000       15.9994           0
     51215 WT4      7564     TIP3     H1       HT       0.417000        1.0080           0
     51216 WT4      7564     TIP3     H2       HT       0.417000        1.0080           0
     51217 WT4      7567     TIP3     OH2      OT      -0.834000       15.9994           0
     51218 WT4      7567     TIP3     H1       HT       0.417000        1.0080           0
     51219 WT4      7567     TIP3     H2       HT       0.417000        1.0080           0
     51220 WT4      7584     TIP3     OH2      OT      -0.834000       15.9994           0
     51221 WT4      7584     TIP3     H1       HT       0.417000        1.0080           0
     51222 WT4      7584     TIP3     H2       HT       0.417000        1.0080           0
     51223 WT4      7586     TIP3     OH2      OT      -0.834000       15.9994           0
     51224 WT4      7586     TIP3     H1       HT       0.417000        1.0080           0
     51225 WT4      7586     TIP3     H2       HT       0.417000        1.0080           0
     51226 WT4      7594     TIP3     OH2      OT      -0.834000       15.9994           0
     51227 WT4      7594     TIP3     H1       HT       0.417000        1.0080           0
     51228 WT4      7594     TIP3     H2       HT       0.417000        1.0080           0
     51229 WT4      7602     TIP3     OH2      OT      -0.834000       15.9994           0
     51230 WT4      7602     TIP3     H1       HT       0.417000        1.0080           0
     51231 WT4      7602     TIP3     H2       HT       0.417000        1.0080           0
     51232 WT4      7608     TIP3     OH2      OT      -0.834000       15.9994           0
     51233 WT4      7608     TIP3     H1       HT       0.417000        1.0080           0
     51234 WT4      7608     TIP3     H2       HT       0.417000        1.0080           0
     51235 WT4      7609     TIP3     OH2      OT      -0.834000       15.9994           0
     51236 WT4      7609     TIP3     H1       HT       0.417000        1.0080           0
     51237 WT4      7609     TIP3     H2       HT       0.417000        1.0080           0
     51238 WT4      7611     TIP3     OH2      OT      -0.834000       15.9994           0
     51239 WT4      7611     TIP3     H1       HT       0.417000        1.0080           0
     51240 WT4      7611     TIP3     H2       HT       0.417000        1.0080           0
     51241 WT4      7612     TIP3     OH2      OT      -0.834000       15.9994           0
     51242 WT4      7612     TIP3     H1       HT       0.417000        1.0080           0
     51243 WT4      7612     TIP3     H2       HT       0.417000        1.0080           0
     51244 WT4      7625     TIP3     OH2      OT      -0.834000       15.9994           0
     51245 WT4      7625     TIP3     H1       HT       0.417000        1.0080           0
     51246 WT4      7625     TIP3     H2       HT       0.417000        1.0080           0
     51247 WT4      7626     TIP3     OH2      OT      -0.834000       15.9994           0
     51248 WT4      7626     TIP3     H1       HT       0.417000        1.0080           0
     51249 WT4      7626     TIP3     H2       HT       0.417000        1.0080           0
     51250 WT4      7628     TIP3     OH2      OT      -0.834000       15.9994           0
     51251 WT4      7628     TIP3     H1       HT       0.417000        1.0080           0
     51252 WT4      7628     TIP3     H2       HT       0.417000        1.0080           0
     51253 WT4      7629     TIP3     OH2      OT      -0.834000       15.9994           0
     51254 WT4      7629     TIP3     H1       HT       0.417000        1.0080           0
     51255 WT4      7629     TIP3     H2       HT       0.417000        1.0080           0
     51256 WT4      7630     TIP3     OH2      OT      -0.834000       15.9994           0
     51257 WT4      7630     TIP3     H1       HT       0.417000        1.0080           0
     51258 WT4      7630     TIP3     H2       HT       0.417000        1.0080           0
     51259 WT4      7631     TIP3     OH2      OT      -0.834000       15.9994           0
     51260 WT4      7631     TIP3     H1       HT       0.417000        1.0080           0
     51261 WT4      7631     TIP3     H2       HT       0.417000        1.0080           0
     51262 WT4      7644     TIP3     OH2      OT      -0.834000       15.9994           0
     51263 WT4      7644     TIP3     H1       HT       0.417000        1.0080           0
     51264 WT4      7644     TIP3     H2       HT       0.417000        1.0080           0
     51265 WT4      7645     TIP3     OH2      OT      -0.834000       15.9994           0
     51266 WT4      7645     TIP3     H1       HT       0.417000        1.0080           0
     51267 WT4      7645     TIP3     H2       HT       0.417000        1.0080           0
     51268 WT4      7663     TIP3     OH2      OT      -0.834000       15.9994           0
     51269 WT4      7663     TIP3     H1       HT       0.417000        1.0080           0
     51270 WT4      7663     TIP3     H2       HT       0.417000        1.0080           0
     51271 WT4      7670     TIP3     OH2      OT      -0.834000       15.9994           0
     51272 WT4      7670     TIP3     H1       HT       0.417000        1.0080           0
     51273 WT4      7670     TIP3     H2       HT       0.417000        1.0080           0
     51274 WT4      7671     TIP3     OH2      OT      -0.834000       15.9994           0
     51275 WT4      7671     TIP3     H1       HT       0.417000        1.0080           0
     51276 WT4      7671     TIP3     H2       HT       0.417000        1.0080           0
     51277 WT4      7686     TIP3     OH2      OT      -0.834000       15.9994           0
     51278 WT4      7686     TIP3     H1       HT       0.417000        1.0080           0
     51279 WT4      7686     TIP3     H2       HT       0.417000        1.0080           0
     51280 WT4      7691     TIP3     OH2      OT      -0.834000       15.9994           0
     51281 WT4      7691     TIP3     H1       HT       0.417000        1.0080           0
     51282 WT4      7691     TIP3     H2       HT       0.417000        1.0080           0
     51283 WT4      7694     TIP3     OH2      OT      -0.834000       15.9994           0
     51284 WT4      7694     TIP3     H1       HT       0.417000        1.0080           0
     51285 WT4      7694     TIP3     H2       HT       0.417000        1.0080           0
     51286 WT4      7696     TIP3     OH2      OT      -0.834000       15.9994           0
     51287 WT4      7696     TIP3     H1       HT       0.417000        1.0080           0
     51288 WT4      7696     TIP3     H2       HT       0.417000        1.0080           0
     51289 WT4      7698     TIP3     OH2      OT      -0.834000       15.9994           0
     51290 WT4      7698     TIP3     H1       HT       0.417000        1.0080           0
     51291 WT4      7698     TIP3     H2       HT       0.417000        1.0080           0
     51292 WT4      7707     TIP3     OH2      OT      -0.834000       15.9994           0
     51293 WT4      7707     TIP3     H1       HT       0.417000        1.0080           0
     51294 WT4      7707     TIP3     H2       HT       0.417000        1.0080           0
     51295 WT4      7734     TIP3     OH2      OT      -0.834000       15.9994           0
     51296 WT4      7734     TIP3     H1       HT       0.417000        1.0080           0
     51297 WT4      7734     TIP3     H2       HT       0.417000        1.0080           0
     51298 WT4      7735     TIP3     OH2      OT      -0.834000       15.9994           0
     51299 WT4      7735     TIP3     H1       HT       0.417000        1.0080           0
     51300 WT4      7735     TIP3     H2       HT       0.417000        1.0080           0
     51301 WT4      7739     TIP3     OH2      OT      -0.834000       15.9994           0
     51302 WT4      7739     TIP3     H1       HT       0.417000        1.0080           0
     51303 WT4      7739     TIP3     H2       HT       0.417000        1.0080           0
     51304 WT4      7872     TIP3     OH2      OT      -0.834000       15.9994           0
     51305 WT4      7872     TIP3     H1       HT       0.417000        1.0080           0
     51306 WT4      7872     TIP3     H2       HT       0.417000        1.0080           0
     51307 WT4      7895     TIP3     OH2      OT      -0.834000       15.9994           0
     51308 WT4      7895     TIP3     H1       HT       0.417000        1.0080           0
     51309 WT4      7895     TIP3     H2       HT       0.417000        1.0080           0
     51310 WT4      7902     TIP3     OH2      OT      -0.834000       15.9994           0
     51311 WT4      7902     TIP3     H1       HT       0.417000        1.0080           0
     51312 WT4      7902     TIP3     H2       HT       0.417000        1.0080           0
     51313 WT4      7922     TIP3     OH2      OT      -0.834000       15.9994           0
     51314 WT4      7922     TIP3     H1       HT       0.417000        1.0080           0
     51315 WT4      7922     TIP3     H2       HT       0.417000        1.0080           0
     51316 WT4      7923     TIP3     OH2      OT      -0.834000       15.9994           0
     51317 WT4      7923     TIP3     H1       HT       0.417000        1.0080           0
     51318 WT4      7923     TIP3     H2       HT       0.417000        1.0080           0
     51319 WT4      7933     TIP3     OH2      OT      -0.834000       15.9994           0
     51320 WT4      7933     TIP3     H1       HT       0.417000        1.0080           0
     51321 WT4      7933     TIP3     H2       HT       0.417000        1.0080           0
     51322 WT4      7938     TIP3     OH2      OT      -0.834000       15.9994           0
     51323 WT4      7938     TIP3     H1       HT       0.417000        1.0080           0
     51324 WT4      7938     TIP3     H2       HT       0.417000        1.0080           0
     51325 WT4      7939     TIP3     OH2      OT      -0.834000       15.9994           0
     51326 WT4      7939     TIP3     H1       HT       0.417000        1.0080           0
     51327 WT4      7939     TIP3     H2       HT       0.417000        1.0080           0
     51328 WT4      7941     TIP3     OH2      OT      -0.834000       15.9994           0
     51329 WT4      7941     TIP3     H1       HT       0.417000        1.0080           0
     51330 WT4      7941     TIP3     H2       HT       0.417000        1.0080           0
     51331 WT4      7942     TIP3     OH2      OT      -0.834000       15.9994           0
     51332 WT4      7942     TIP3     H1       HT       0.417000        1.0080           0
     51333 WT4      7942     TIP3     H2       HT       0.417000        1.0080           0
     51334 WT4      7945     TIP3     OH2      OT      -0.834000       15.9994           0
     51335 WT4      7945     TIP3     H1       HT       0.417000        1.0080           0
     51336 WT4      7945     TIP3     H2       HT       0.417000        1.0080           0
     51337 WT4      7947     TIP3     OH2      OT      -0.834000       15.9994           0
     51338 WT4      7947     TIP3     H1       HT       0.417000        1.0080           0
     51339 WT4      7947     TIP3     H2       HT       0.417000        1.0080           0
     51340 WT4      7949     TIP3     OH2      OT      -0.834000       15.9994           0
     51341 WT4      7949     TIP3     H1       HT       0.417000        1.0080           0
     51342 WT4      7949     TIP3     H2       HT       0.417000        1.0080           0
     51343 WT4      7961     TIP3     OH2      OT      -0.834000       15.9994           0
     51344 WT4      7961     TIP3     H1       HT       0.417000        1.0080           0
     51345 WT4      7961     TIP3     H2       HT       0.417000        1.0080           0
     51346 WT4      7962     TIP3     OH2      OT      -0.834000       15.9994           0
     51347 WT4      7962     TIP3     H1       HT       0.417000        1.0080           0
     51348 WT4      7962     TIP3     H2       HT       0.417000        1.0080           0
     51349 WT4      7963     TIP3     OH2      OT      -0.834000       15.9994           0
     51350 WT4      7963     TIP3     H1       HT       0.417000        1.0080           0
     51351 WT4      7963     TIP3     H2       HT       0.417000        1.0080           0
     51352 WT4      7964     TIP3     OH2      OT      -0.834000       15.9994           0
     51353 WT4      7964     TIP3     H1       HT       0.417000        1.0080           0
     51354 WT4      7964     TIP3     H2       HT       0.417000        1.0080           0
     51355 WT4      7965     TIP3     OH2      OT      -0.834000       15.9994           0
     51356 WT4      7965     TIP3     H1       HT       0.417000        1.0080           0
     51357 WT4      7965     TIP3     H2       HT       0.417000        1.0080           0
     51358 WT4      7967     TIP3     OH2      OT      -0.834000       15.9994           0
     51359 WT4      7967     TIP3     H1       HT       0.417000        1.0080           0
     51360 WT4      7967     TIP3     H2       HT       0.417000        1.0080           0
     51361 WT4      7969     TIP3     OH2      OT      -0.834000       15.9994           0
     51362 WT4      7969     TIP3     H1       HT       0.417000        1.0080           0
     51363 WT4      7969     TIP3     H2       HT       0.417000        1.0080           0
     51364 WT4      7981     TIP3     OH2      OT      -0.834000       15.9994           0
     51365 WT4      7981     TIP3     H1       HT       0.417000        1.0080           0
     51366 WT4      7981     TIP3     H2       HT       0.417000        1.0080           0
     51367 WT4      7983     TIP3     OH2      OT      -0.834000       15.9994           0
     51368 WT4      7983     TIP3     H1       HT       0.417000        1.0080           0
     51369 WT4      7983     TIP3     H2       HT       0.417000        1.0080           0
     51370 WT4      7984     TIP3     OH2      OT      -0.834000       15.9994           0
     51371 WT4      7984     TIP3     H1       HT       0.417000        1.0080           0
     51372 WT4      7984     TIP3     H2       HT       0.417000        1.0080           0
     51373 WT4      7985     TIP3     OH2      OT      -0.834000       15.9994           0
     51374 WT4      7985     TIP3     H1       HT       0.417000        1.0080           0
     51375 WT4      7985     TIP3     H2       HT       0.417000        1.0080           0
     51376 WT4      7986     TIP3     OH2      OT      -0.834000       15.9994           0
     51377 WT4      7986     TIP3     H1       HT       0.417000        1.0080           0
     51378 WT4      7986     TIP3     H2       HT       0.417000        1.0080           0
     51379 WT4      7987     TIP3     OH2      OT      -0.834000       15.9994           0
     51380 WT4      7987     TIP3     H1       HT       0.417000        1.0080           0
     51381 WT4      7987     TIP3     H2       HT       0.417000        1.0080           0
     51382 WT4      7989     TIP3     OH2      OT      -0.834000       15.9994           0
     51383 WT4      7989     TIP3     H1       HT       0.417000        1.0080           0
     51384 WT4      7989     TIP3     H2       HT       0.417000        1.0080           0
     51385 WT4      8003     TIP3     OH2      OT      -0.834000       15.9994           0
     51386 WT4      8003     TIP3     H1       HT       0.417000        1.0080           0
     51387 WT4      8003     TIP3     H2       HT       0.417000        1.0080           0
     51388 WT4      8004     TIP3     OH2      OT      -0.834000       15.9994           0
     51389 WT4      8004     TIP3     H1       HT       0.417000        1.0080           0
     51390 WT4      8004     TIP3     H2       HT       0.417000        1.0080           0
     51391 WT4      8005     TIP3     OH2      OT      -0.834000       15.9994           0
     51392 WT4      8005     TIP3     H1       HT       0.417000        1.0080           0
     51393 WT4      8005     TIP3     H2       HT       0.417000        1.0080           0
     51394 WT4      8006     TIP3     OH2      OT      -0.834000       15.9994           0
     51395 WT4      8006     TIP3     H1       HT       0.417000        1.0080           0
     51396 WT4      8006     TIP3     H2       HT       0.417000        1.0080           0
     51397 WT4      8007     TIP3     OH2      OT      -0.834000       15.9994           0
     51398 WT4      8007     TIP3     H1       HT       0.417000        1.0080           0
     51399 WT4      8007     TIP3     H2       HT       0.417000        1.0080           0
     51400 WT4      8022     TIP3     OH2      OT      -0.834000       15.9994           0
     51401 WT4      8022     TIP3     H1       HT       0.417000        1.0080           0
     51402 WT4      8022     TIP3     H2       HT       0.417000        1.0080           0
     51403 WT4      8023     TIP3     OH2      OT      -0.834000       15.9994           0
     51404 WT4      8023     TIP3     H1       HT       0.417000        1.0080           0
     51405 WT4      8023     TIP3     H2       HT       0.417000        1.0080           0
     51406 WT4      8027     TIP3     OH2      OT      -0.834000       15.9994           0
     51407 WT4      8027     TIP3     H1       HT       0.417000        1.0080           0
     51408 WT4      8027     TIP3     H2       HT       0.417000        1.0080           0
     51409 WT4      8029     TIP3     OH2      OT      -0.834000       15.9994           0
     51410 WT4      8029     TIP3     H1       HT       0.417000        1.0080           0
     51411 WT4      8029     TIP3     H2       HT       0.417000        1.0080           0
     51412 WT4      8030     TIP3     OH2      OT      -0.834000       15.9994           0
     51413 WT4      8030     TIP3     H1       HT       0.417000        1.0080           0
     51414 WT4      8030     TIP3     H2       HT       0.417000        1.0080           0
     51415 WT4      8040     TIP3     OH2      OT      -0.834000       15.9994           0
     51416 WT4      8040     TIP3     H1       HT       0.417000        1.0080           0
     51417 WT4      8040     TIP3     H2       HT       0.417000        1.0080           0
     51418 WT4      8041     TIP3     OH2      OT      -0.834000       15.9994           0
     51419 WT4      8041     TIP3     H1       HT       0.417000        1.0080           0
     51420 WT4      8041     TIP3     H2       HT       0.417000        1.0080           0
     51421 WT4      8045     TIP3     OH2      OT      -0.834000       15.9994           0
     51422 WT4      8045     TIP3     H1       HT       0.417000        1.0080           0
     51423 WT4      8045     TIP3     H2       HT       0.417000        1.0080           0
     51424 WT4      8046     TIP3     OH2      OT      -0.834000       15.9994           0
     51425 WT4      8046     TIP3     H1       HT       0.417000        1.0080           0
     51426 WT4      8046     TIP3     H2       HT       0.417000        1.0080           0
     51427 WT4      8047     TIP3     OH2      OT      -0.834000       15.9994           0
     51428 WT4      8047     TIP3     H1       HT       0.417000        1.0080           0
     51429 WT4      8047     TIP3     H2       HT       0.417000        1.0080           0
     51430 WT4      8049     TIP3     OH2      OT      -0.834000       15.9994           0
     51431 WT4      8049     TIP3     H1       HT       0.417000        1.0080           0
     51432 WT4      8049     TIP3     H2       HT       0.417000        1.0080           0
     51433 WT4      8051     TIP3     OH2      OT      -0.834000       15.9994           0
     51434 WT4      8051     TIP3     H1       HT       0.417000        1.0080           0
     51435 WT4      8051     TIP3     H2       HT       0.417000        1.0080           0
     51436 WT4      8063     TIP3     OH2      OT      -0.834000       15.9994           0
     51437 WT4      8063     TIP3     H1       HT       0.417000        1.0080           0
     51438 WT4      8063     TIP3     H2       HT       0.417000        1.0080           0
     51439 WT4      8064     TIP3     OH2      OT      -0.834000       15.9994           0
     51440 WT4      8064     TIP3     H1       HT       0.417000        1.0080           0
     51441 WT4      8064     TIP3     H2       HT       0.417000        1.0080           0
     51442 WT4      8068     TIP3     OH2      OT      -0.834000       15.9994           0
     51443 WT4      8068     TIP3     H1       HT       0.417000        1.0080           0
     51444 WT4      8068     TIP3     H2       HT       0.417000        1.0080           0
     51445 WT4      8070     TIP3     OH2      OT      -0.834000       15.9994           0
     51446 WT4      8070     TIP3     H1       HT       0.417000        1.0080           0
     51447 WT4      8070     TIP3     H2       HT       0.417000        1.0080           0
     51448 WT4      8071     TIP3     OH2      OT      -0.834000       15.9994           0
     51449 WT4      8071     TIP3     H1       HT       0.417000        1.0080           0
     51450 WT4      8071     TIP3     H2       HT       0.417000        1.0080           0
     51451 WT4      8075     TIP3     OH2      OT      -0.834000       15.9994           0
     51452 WT4      8075     TIP3     H1       HT       0.417000        1.0080           0
     51453 WT4      8075     TIP3     H2       HT       0.417000        1.0080           0
     51454 WT4      8084     TIP3     OH2      OT      -0.834000       15.9994           0
     51455 WT4      8084     TIP3     H1       HT       0.417000        1.0080           0
     51456 WT4      8084     TIP3     H2       HT       0.417000        1.0080           0
     51457 WT4      8087     TIP3     OH2      OT      -0.834000       15.9994           0
     51458 WT4      8087     TIP3     H1       HT       0.417000        1.0080           0
     51459 WT4      8087     TIP3     H2       HT       0.417000        1.0080           0
     51460 WT4      8088     TIP3     OH2      OT      -0.834000       15.9994           0
     51461 WT4      8088     TIP3     H1       HT       0.417000        1.0080           0
     51462 WT4      8088     TIP3     H2       HT       0.417000        1.0080           0
     51463 WT4      8089     TIP3     OH2      OT      -0.834000       15.9994           0
     51464 WT4      8089     TIP3     H1       HT       0.417000        1.0080           0
     51465 WT4      8089     TIP3     H2       HT       0.417000        1.0080           0
     51466 WT4      8093     TIP3     OH2      OT      -0.834000       15.9994           0
     51467 WT4      8093     TIP3     H1       HT       0.417000        1.0080           0
     51468 WT4      8093     TIP3     H2       HT       0.417000        1.0080           0
     51469 WT4      8095     TIP3     OH2      OT      -0.834000       15.9994           0
     51470 WT4      8095     TIP3     H1       HT       0.417000        1.0080           0
     51471 WT4      8095     TIP3     H2       HT       0.417000        1.0080           0
     51472 WT4      8096     TIP3     OH2      OT      -0.834000       15.9994           0
     51473 WT4      8096     TIP3     H1       HT       0.417000        1.0080           0
     51474 WT4      8096     TIP3     H2       HT       0.417000        1.0080           0
     51475 WT4      8106     TIP3     OH2      OT      -0.834000       15.9994           0
     51476 WT4      8106     TIP3     H1       HT       0.417000        1.0080           0
     51477 WT4      8106     TIP3     H2       HT       0.417000        1.0080           0
     51478 WT4      8109     TIP3     OH2      OT      -0.834000       15.9994           0
     51479 WT4      8109     TIP3     H1       HT       0.417000        1.0080           0
     51480 WT4      8109     TIP3     H2       HT       0.417000        1.0080           0
     51481 WT4      8111     TIP3     OH2      OT      -0.834000       15.9994           0
     51482 WT4      8111     TIP3     H1       HT       0.417000        1.0080           0
     51483 WT4      8111     TIP3     H2       HT       0.417000        1.0080           0
     51484 WT4      8112     TIP3     OH2      OT      -0.834000       15.9994           0
     51485 WT4      8112     TIP3     H1       HT       0.417000        1.0080           0
     51486 WT4      8112     TIP3     H2       HT       0.417000        1.0080           0
     51487 WT4      8114     TIP3     OH2      OT      -0.834000       15.9994           0
     51488 WT4      8114     TIP3     H1       HT       0.417000        1.0080           0
     51489 WT4      8114     TIP3     H2       HT       0.417000        1.0080           0
     51490 WT4      8154     TIP3     OH2      OT      -0.834000       15.9994           0
     51491 WT4      8154     TIP3     H1       HT       0.417000        1.0080           0
     51492 WT4      8154     TIP3     H2       HT       0.417000        1.0080           0
     51493 WT4      8178     TIP3     OH2      OT      -0.834000       15.9994           0
     51494 WT4      8178     TIP3     H1       HT       0.417000        1.0080           0
     51495 WT4      8178     TIP3     H2       HT       0.417000        1.0080           0
     51496 WT4      8319     TIP3     OH2      OT      -0.834000       15.9994           0
     51497 WT4      8319     TIP3     H1       HT       0.417000        1.0080           0
     51498 WT4      8319     TIP3     H2       HT       0.417000        1.0080           0
     51499 WT4      8322     TIP3     OH2      OT      -0.834000       15.9994           0
     51500 WT4      8322     TIP3     H1       HT       0.417000        1.0080           0
     51501 WT4      8322     TIP3     H2       HT       0.417000        1.0080           0
     51502 WT4      8324     TIP3     OH2      OT      -0.834000       15.9994           0
     51503 WT4      8324     TIP3     H1       HT       0.417000        1.0080           0
     51504 WT4      8324     TIP3     H2       HT       0.417000        1.0080           0
     51505 WT4      8339     TIP3     OH2      OT      -0.834000       15.9994           0
     51506 WT4      8339     TIP3     H1       HT       0.417000        1.0080           0
     51507 WT4      8339     TIP3     H2       HT       0.417000        1.0080           0
     51508 WT4      8345     TIP3     OH2      OT      -0.834000       15.9994           0
     51509 WT4      8345     TIP3     H1       HT       0.417000        1.0080           0
     51510 WT4      8345     TIP3     H2       HT       0.417000        1.0080           0
     51511 WT4      8364     TIP3     OH2      OT      -0.834000       15.9994           0
     51512 WT4      8364     TIP3     H1       HT       0.417000        1.0080           0
     51513 WT4      8364     TIP3     H2       HT       0.417000        1.0080           0
     51514 WT4      8365     TIP3     OH2      OT      -0.834000       15.9994           0
     51515 WT4      8365     TIP3     H1       HT       0.417000        1.0080           0
     51516 WT4      8365     TIP3     H2       HT       0.417000        1.0080           0
     51517 WT4      8377     TIP3     OH2      OT      -0.834000       15.9994           0
     51518 WT4      8377     TIP3     H1       HT       0.417000        1.0080           0
     51519 WT4      8377     TIP3     H2       HT       0.417000        1.0080           0
     51520 WT4      8378     TIP3     OH2      OT      -0.834000       15.9994           0
     51521 WT4      8378     TIP3     H1       HT       0.417000        1.0080           0
     51522 WT4      8378     TIP3     H2       HT       0.417000        1.0080           0
     51523 WT4      8381     TIP3     OH2      OT      -0.834000       15.9994           0
     51524 WT4      8381     TIP3     H1       HT       0.417000        1.0080           0
     51525 WT4      8381     TIP3     H2       HT       0.417000        1.0080           0
     51526 WT4      8382     TIP3     OH2      OT      -0.834000       15.9994           0
     51527 WT4      8382     TIP3     H1       HT       0.417000        1.0080           0
     51528 WT4      8382     TIP3     H2       HT       0.417000        1.0080           0
     51529 WT4      8384     TIP3     OH2      OT      -0.834000       15.9994           0
     51530 WT4      8384     TIP3     H1       HT       0.417000        1.0080           0
     51531 WT4      8384     TIP3     H2       HT       0.417000        1.0080           0
     51532 WT4      8386     TIP3     OH2      OT      -0.834000       15.9994           0
     51533 WT4      8386     TIP3     H1       HT       0.417000        1.0080           0
     51534 WT4      8386     TIP3     H2       HT       0.417000        1.0080           0
     51535 WT4      8388     TIP3     OH2      OT      -0.834000       15.9994           0
     51536 WT4      8388     TIP3     H1       HT       0.417000        1.0080           0
     51537 WT4      8388     TIP3     H2       HT       0.417000        1.0080           0
     51538 WT4      8389     TIP3     OH2      OT      -0.834000       15.9994           0
     51539 WT4      8389     TIP3     H1       HT       0.417000        1.0080           0
     51540 WT4      8389     TIP3     H2       HT       0.417000        1.0080           0
     51541 WT4      8403     TIP3     OH2      OT      -0.834000       15.9994           0
     51542 WT4      8403     TIP3     H1       HT       0.417000        1.0080           0
     51543 WT4      8403     TIP3     H2       HT       0.417000        1.0080           0
     51544 WT4      8404     TIP3     OH2      OT      -0.834000       15.9994           0
     51545 WT4      8404     TIP3     H1       HT       0.417000        1.0080           0
     51546 WT4      8404     TIP3     H2       HT       0.417000        1.0080           0
     51547 WT4      8406     TIP3     OH2      OT      -0.834000       15.9994           0
     51548 WT4      8406     TIP3     H1       HT       0.417000        1.0080           0
     51549 WT4      8406     TIP3     H2       HT       0.417000        1.0080           0
     51550 WT4      8409     TIP3     OH2      OT      -0.834000       15.9994           0
     51551 WT4      8409     TIP3     H1       HT       0.417000        1.0080           0
     51552 WT4      8409     TIP3     H2       HT       0.417000        1.0080           0
     51553 WT4      8411     TIP3     OH2      OT      -0.834000       15.9994           0
     51554 WT4      8411     TIP3     H1       HT       0.417000        1.0080           0
     51555 WT4      8411     TIP3     H2       HT       0.417000        1.0080           0
     51556 WT4      8421     TIP3     OH2      OT      -0.834000       15.9994           0
     51557 WT4      8421     TIP3     H1       HT       0.417000        1.0080           0
     51558 WT4      8421     TIP3     H2       HT       0.417000        1.0080           0
     51559 WT4      8425     TIP3     OH2      OT      -0.834000       15.9994           0
     51560 WT4      8425     TIP3     H1       HT       0.417000        1.0080           0
     51561 WT4      8425     TIP3     H2       HT       0.417000        1.0080           0
     51562 WT4      8427     TIP3     OH2      OT      -0.834000       15.9994           0
     51563 WT4      8427     TIP3     H1       HT       0.417000        1.0080           0
     51564 WT4      8427     TIP3     H2       HT       0.417000        1.0080           0
     51565 WT4      8431     TIP3     OH2      OT      -0.834000       15.9994           0
     51566 WT4      8431     TIP3     H1       HT       0.417000        1.0080           0
     51567 WT4      8431     TIP3     H2       HT       0.417000        1.0080           0
     51568 WT4      8432     TIP3     OH2      OT      -0.834000       15.9994           0
     51569 WT4      8432     TIP3     H1       HT       0.417000        1.0080           0
     51570 WT4      8432     TIP3     H2       HT       0.417000        1.0080           0
     51571 WT4      8441     TIP3     OH2      OT      -0.834000       15.9994           0
     51572 WT4      8441     TIP3     H1       HT       0.417000        1.0080           0
     51573 WT4      8441     TIP3     H2       HT       0.417000        1.0080           0
     51574 WT4      8442     TIP3     OH2      OT      -0.834000       15.9994           0
     51575 WT4      8442     TIP3     H1       HT       0.417000        1.0080           0
     51576 WT4      8442     TIP3     H2       HT       0.417000        1.0080           0
     51577 WT4      8444     TIP3     OH2      OT      -0.834000       15.9994           0
     51578 WT4      8444     TIP3     H1       HT       0.417000        1.0080           0
     51579 WT4      8444     TIP3     H2       HT       0.417000        1.0080           0
     51580 WT4      8445     TIP3     OH2      OT      -0.834000       15.9994           0
     51581 WT4      8445     TIP3     H1       HT       0.417000        1.0080           0
     51582 WT4      8445     TIP3     H2       HT       0.417000        1.0080           0
     51583 WT4      8446     TIP3     OH2      OT      -0.834000       15.9994           0
     51584 WT4      8446     TIP3     H1       HT       0.417000        1.0080           0
     51585 WT4      8446     TIP3     H2       HT       0.417000        1.0080           0
     51586 WT4      8447     TIP3     OH2      OT      -0.834000       15.9994           0
     51587 WT4      8447     TIP3     H1       HT       0.417000        1.0080           0
     51588 WT4      8447     TIP3     H2       HT       0.417000        1.0080           0
     51589 WT4      8449     TIP3     OH2      OT      -0.834000       15.9994           0
     51590 WT4      8449     TIP3     H1       HT       0.417000        1.0080           0
     51591 WT4      8449     TIP3     H2       HT       0.417000        1.0080           0
     51592 WT4      8455     TIP3     OH2      OT      -0.834000       15.9994           0
     51593 WT4      8455     TIP3     H1       HT       0.417000        1.0080           0
     51594 WT4      8455     TIP3     H2       HT       0.417000        1.0080           0
     51595 WT4      8462     TIP3     OH2      OT      -0.834000       15.9994           0
     51596 WT4      8462     TIP3     H1       HT       0.417000        1.0080           0
     51597 WT4      8462     TIP3     H2       HT       0.417000        1.0080           0
     51598 WT4      8465     TIP3     OH2      OT      -0.834000       15.9994           0
     51599 WT4      8465     TIP3     H1       HT       0.417000        1.0080           0
     51600 WT4      8465     TIP3     H2       HT       0.417000        1.0080           0
     51601 WT4      8466     TIP3     OH2      OT      -0.834000       15.9994           0
     51602 WT4      8466     TIP3     H1       HT       0.417000        1.0080           0
     51603 WT4      8466     TIP3     H2       HT       0.417000        1.0080           0
     51604 WT4      8468     TIP3     OH2      OT      -0.834000       15.9994           0
     51605 WT4      8468     TIP3     H1       HT       0.417000        1.0080           0
     51606 WT4      8468     TIP3     H2       HT       0.417000        1.0080           0
     51607 WT4      8486     TIP3     OH2      OT      -0.834000       15.9994           0
     51608 WT4      8486     TIP3     H1       HT       0.417000        1.0080           0
     51609 WT4      8486     TIP3     H2       HT       0.417000        1.0080           0
     51610 WT4      8489     TIP3     OH2      OT      -0.834000       15.9994           0
     51611 WT4      8489     TIP3     H1       HT       0.417000        1.0080           0
     51612 WT4      8489     TIP3     H2       HT       0.417000        1.0080           0
     51613 WT4      8490     TIP3     OH2      OT      -0.834000       15.9994           0
     51614 WT4      8490     TIP3     H1       HT       0.417000        1.0080           0
     51615 WT4      8490     TIP3     H2       HT       0.417000        1.0080           0
     51616 WT4      8491     TIP3     OH2      OT      -0.834000       15.9994           0
     51617 WT4      8491     TIP3     H1       HT       0.417000        1.0080           0
     51618 WT4      8491     TIP3     H2       HT       0.417000        1.0080           0
     51619 WT4      8505     TIP3     OH2      OT      -0.834000       15.9994           0
     51620 WT4      8505     TIP3     H1       HT       0.417000        1.0080           0
     51621 WT4      8505     TIP3     H2       HT       0.417000        1.0080           0
     51622 WT4      8506     TIP3     OH2      OT      -0.834000       15.9994           0
     51623 WT4      8506     TIP3     H1       HT       0.417000        1.0080           0
     51624 WT4      8506     TIP3     H2       HT       0.417000        1.0080           0
     51625 WT4      8509     TIP3     OH2      OT      -0.834000       15.9994           0
     51626 WT4      8509     TIP3     H1       HT       0.417000        1.0080           0
     51627 WT4      8509     TIP3     H2       HT       0.417000        1.0080           0
     51628 WT4      8513     TIP3     OH2      OT      -0.834000       15.9994           0
     51629 WT4      8513     TIP3     H1       HT       0.417000        1.0080           0
     51630 WT4      8513     TIP3     H2       HT       0.417000        1.0080           0
     51631 WT4      8515     TIP3     OH2      OT      -0.834000       15.9994           0
     51632 WT4      8515     TIP3     H1       HT       0.417000        1.0080           0
     51633 WT4      8515     TIP3     H2       HT       0.417000        1.0080           0
     51634 WT4      8528     TIP3     OH2      OT      -0.834000       15.9994           0
     51635 WT4      8528     TIP3     H1       HT       0.417000        1.0080           0
     51636 WT4      8528     TIP3     H2       HT       0.417000        1.0080           0
     51637 WT4      8530     TIP3     OH2      OT      -0.834000       15.9994           0
     51638 WT4      8530     TIP3     H1       HT       0.417000        1.0080           0
     51639 WT4      8530     TIP3     H2       HT       0.417000        1.0080           0
     51640 WT4      8534     TIP3     OH2      OT      -0.834000       15.9994           0
     51641 WT4      8534     TIP3     H1       HT       0.417000        1.0080           0
     51642 WT4      8534     TIP3     H2       HT       0.417000        1.0080           0
     51643 WT4      8535     TIP3     OH2      OT      -0.834000       15.9994           0
     51644 WT4      8535     TIP3     H1       HT       0.417000        1.0080           0
     51645 WT4      8535     TIP3     H2       HT       0.417000        1.0080           0
     51646 WT4      8536     TIP3     OH2      OT      -0.834000       15.9994           0
     51647 WT4      8536     TIP3     H1       HT       0.417000        1.0080           0
     51648 WT4      8536     TIP3     H2       HT       0.417000        1.0080           0
     51649 WT4      8539     TIP3     OH2      OT      -0.834000       15.9994           0
     51650 WT4      8539     TIP3     H1       HT       0.417000        1.0080           0
     51651 WT4      8539     TIP3     H2       HT       0.417000        1.0080           0
     51652 WT4      8548     TIP3     OH2      OT      -0.834000       15.9994           0
     51653 WT4      8548     TIP3     H1       HT       0.417000        1.0080           0
     51654 WT4      8548     TIP3     H2       HT       0.417000        1.0080           0
     51655 WT4      8556     TIP3     OH2      OT      -0.834000       15.9994           0
     51656 WT4      8556     TIP3     H1       HT       0.417000        1.0080           0
     51657 WT4      8556     TIP3     H2       HT       0.417000        1.0080           0
     51658 WT4      8590     TIP3     OH2      OT      -0.834000       15.9994           0
     51659 WT4      8590     TIP3     H1       HT       0.417000        1.0080           0
     51660 WT4      8590     TIP3     H2       HT       0.417000        1.0080           0
     51661 WT4      8640     TIP3     OH2      OT      -0.834000       15.9994           0
     51662 WT4      8640     TIP3     H1       HT       0.417000        1.0080           0
     51663 WT4      8640     TIP3     H2       HT       0.417000        1.0080           0
     51664 WT4      8760     TIP3     OH2      OT      -0.834000       15.9994           0
     51665 WT4      8760     TIP3     H1       HT       0.417000        1.0080           0
     51666 WT4      8760     TIP3     H2       HT       0.417000        1.0080           0
     51667 WT4      8777     TIP3     OH2      OT      -0.834000       15.9994           0
     51668 WT4      8777     TIP3     H1       HT       0.417000        1.0080           0
     51669 WT4      8777     TIP3     H2       HT       0.417000        1.0080           0
     51670 WT4      8779     TIP3     OH2      OT      -0.834000       15.9994           0
     51671 WT4      8779     TIP3     H1       HT       0.417000        1.0080           0
     51672 WT4      8779     TIP3     H2       HT       0.417000        1.0080           0
     51673 WT4      8780     TIP3     OH2      OT      -0.834000       15.9994           0
     51674 WT4      8780     TIP3     H1       HT       0.417000        1.0080           0
     51675 WT4      8780     TIP3     H2       HT       0.417000        1.0080           0
     51676 WT4      8790     TIP3     OH2      OT      -0.834000       15.9994           0
     51677 WT4      8790     TIP3     H1       HT       0.417000        1.0080           0
     51678 WT4      8790     TIP3     H2       HT       0.417000        1.0080           0
     51679 WT4      8801     TIP3     OH2      OT      -0.834000       15.9994           0
     51680 WT4      8801     TIP3     H1       HT       0.417000        1.0080           0
     51681 WT4      8801     TIP3     H2       HT       0.417000        1.0080           0
     51682 WT4      8802     TIP3     OH2      OT      -0.834000       15.9994           0
     51683 WT4      8802     TIP3     H1       HT       0.417000        1.0080           0
     51684 WT4      8802     TIP3     H2       HT       0.417000        1.0080           0
     51685 WT4      8803     TIP3     OH2      OT      -0.834000       15.9994           0
     51686 WT4      8803     TIP3     H1       HT       0.417000        1.0080           0
     51687 WT4      8803     TIP3     H2       HT       0.417000        1.0080           0
     51688 WT4      8807     TIP3     OH2      OT      -0.834000       15.9994           0
     51689 WT4      8807     TIP3     H1       HT       0.417000        1.0080           0
     51690 WT4      8807     TIP3     H2       HT       0.417000        1.0080           0
     51691 WT4      8820     TIP3     OH2      OT      -0.834000       15.9994           0
     51692 WT4      8820     TIP3     H1       HT       0.417000        1.0080           0
     51693 WT4      8820     TIP3     H2       HT       0.417000        1.0080           0
     51694 WT4      8822     TIP3     OH2      OT      -0.834000       15.9994           0
     51695 WT4      8822     TIP3     H1       HT       0.417000        1.0080           0
     51696 WT4      8822     TIP3     H2       HT       0.417000        1.0080           0
     51697 WT4      8823     TIP3     OH2      OT      -0.834000       15.9994           0
     51698 WT4      8823     TIP3     H1       HT       0.417000        1.0080           0
     51699 WT4      8823     TIP3     H2       HT       0.417000        1.0080           0
     51700 WT4      8829     TIP3     OH2      OT      -0.834000       15.9994           0
     51701 WT4      8829     TIP3     H1       HT       0.417000        1.0080           0
     51702 WT4      8829     TIP3     H2       HT       0.417000        1.0080           0
     51703 WT4      8830     TIP3     OH2      OT      -0.834000       15.9994           0
     51704 WT4      8830     TIP3     H1       HT       0.417000        1.0080           0
     51705 WT4      8830     TIP3     H2       HT       0.417000        1.0080           0
     51706 WT4      8842     TIP3     OH2      OT      -0.834000       15.9994           0
     51707 WT4      8842     TIP3     H1       HT       0.417000        1.0080           0
     51708 WT4      8842     TIP3     H2       HT       0.417000        1.0080           0
     51709 WT4      8843     TIP3     OH2      OT      -0.834000       15.9994           0
     51710 WT4      8843     TIP3     H1       HT       0.417000        1.0080           0
     51711 WT4      8843     TIP3     H2       HT       0.417000        1.0080           0
     51712 WT4      8844     TIP3     OH2      OT      -0.834000       15.9994           0
     51713 WT4      8844     TIP3     H1       HT       0.417000        1.0080           0
     51714 WT4      8844     TIP3     H2       HT       0.417000        1.0080           0
     51715 WT4      8845     TIP3     OH2      OT      -0.834000       15.9994           0
     51716 WT4      8845     TIP3     H1       HT       0.417000        1.0080           0
     51717 WT4      8845     TIP3     H2       HT       0.417000        1.0080           0
     51718 WT4      8846     TIP3     OH2      OT      -0.834000       15.9994           0
     51719 WT4      8846     TIP3     H1       HT       0.417000        1.0080           0
     51720 WT4      8846     TIP3     H2       HT       0.417000        1.0080           0
     51721 WT4      8847     TIP3     OH2      OT      -0.834000       15.9994           0
     51722 WT4      8847     TIP3     H1       HT       0.417000        1.0080           0
     51723 WT4      8847     TIP3     H2       HT       0.417000        1.0080           0
     51724 WT4      8849     TIP3     OH2      OT      -0.834000       15.9994           0
     51725 WT4      8849     TIP3     H1       HT       0.417000        1.0080           0
     51726 WT4      8849     TIP3     H2       HT       0.417000        1.0080           0
     51727 WT4      8850     TIP3     OH2      OT      -0.834000       15.9994           0
     51728 WT4      8850     TIP3     H1       HT       0.417000        1.0080           0
     51729 WT4      8850     TIP3     H2       HT       0.417000        1.0080           0
     51730 WT4      8863     TIP3     OH2      OT      -0.834000       15.9994           0
     51731 WT4      8863     TIP3     H1       HT       0.417000        1.0080           0
     51732 WT4      8863     TIP3     H2       HT       0.417000        1.0080           0
     51733 WT4      8865     TIP3     OH2      OT      -0.834000       15.9994           0
     51734 WT4      8865     TIP3     H1       HT       0.417000        1.0080           0
     51735 WT4      8865     TIP3     H2       HT       0.417000        1.0080           0
     51736 WT4      8866     TIP3     OH2      OT      -0.834000       15.9994           0
     51737 WT4      8866     TIP3     H1       HT       0.417000        1.0080           0
     51738 WT4      8866     TIP3     H2       HT       0.417000        1.0080           0
     51739 WT4      8867     TIP3     OH2      OT      -0.834000       15.9994           0
     51740 WT4      8867     TIP3     H1       HT       0.417000        1.0080           0
     51741 WT4      8867     TIP3     H2       HT       0.417000        1.0080           0
     51742 WT4      8869     TIP3     OH2      OT      -0.834000       15.9994           0
     51743 WT4      8869     TIP3     H1       HT       0.417000        1.0080           0
     51744 WT4      8869     TIP3     H2       HT       0.417000        1.0080           0
     51745 WT4      8883     TIP3     OH2      OT      -0.834000       15.9994           0
     51746 WT4      8883     TIP3     H1       HT       0.417000        1.0080           0
     51747 WT4      8883     TIP3     H2       HT       0.417000        1.0080           0
     51748 WT4      8884     TIP3     OH2      OT      -0.834000       15.9994           0
     51749 WT4      8884     TIP3     H1       HT       0.417000        1.0080           0
     51750 WT4      8884     TIP3     H2       HT       0.417000        1.0080           0
     51751 WT4      8885     TIP3     OH2      OT      -0.834000       15.9994           0
     51752 WT4      8885     TIP3     H1       HT       0.417000        1.0080           0
     51753 WT4      8885     TIP3     H2       HT       0.417000        1.0080           0
     51754 WT4      8886     TIP3     OH2      OT      -0.834000       15.9994           0
     51755 WT4      8886     TIP3     H1       HT       0.417000        1.0080           0
     51756 WT4      8886     TIP3     H2       HT       0.417000        1.0080           0
     51757 WT4      8887     TIP3     OH2      OT      -0.834000       15.9994           0
     51758 WT4      8887     TIP3     H1       HT       0.417000        1.0080           0
     51759 WT4      8887     TIP3     H2       HT       0.417000        1.0080           0
     51760 WT4      8895     TIP3     OH2      OT      -0.834000       15.9994           0
     51761 WT4      8895     TIP3     H1       HT       0.417000        1.0080           0
     51762 WT4      8895     TIP3     H2       HT       0.417000        1.0080           0
     51763 WT4      8901     TIP3     OH2      OT      -0.834000       15.9994           0
     51764 WT4      8901     TIP3     H1       HT       0.417000        1.0080           0
     51765 WT4      8901     TIP3     H2       HT       0.417000        1.0080           0
     51766 WT4      8903     TIP3     OH2      OT      -0.834000       15.9994           0
     51767 WT4      8903     TIP3     H1       HT       0.417000        1.0080           0
     51768 WT4      8903     TIP3     H2       HT       0.417000        1.0080           0
     51769 WT4      8905     TIP3     OH2      OT      -0.834000       15.9994           0
     51770 WT4      8905     TIP3     H1       HT       0.417000        1.0080           0
     51771 WT4      8905     TIP3     H2       HT       0.417000        1.0080           0
     51772 WT4      8907     TIP3     OH2      OT      -0.834000       15.9994           0
     51773 WT4      8907     TIP3     H1       HT       0.417000        1.0080           0
     51774 WT4      8907     TIP3     H2       HT       0.417000        1.0080           0
     51775 WT4      8911     TIP3     OH2      OT      -0.834000       15.9994           0
     51776 WT4      8911     TIP3     H1       HT       0.417000        1.0080           0
     51777 WT4      8911     TIP3     H2       HT       0.417000        1.0080           0
     51778 WT4      8912     TIP3     OH2      OT      -0.834000       15.9994           0
     51779 WT4      8912     TIP3     H1       HT       0.417000        1.0080           0
     51780 WT4      8912     TIP3     H2       HT       0.417000        1.0080           0
     51781 WT4      8913     TIP3     OH2      OT      -0.834000       15.9994           0
     51782 WT4      8913     TIP3     H1       HT       0.417000        1.0080           0
     51783 WT4      8913     TIP3     H2       HT       0.417000        1.0080           0
     51784 WT4      8914     TIP3     OH2      OT      -0.834000       15.9994           0
     51785 WT4      8914     TIP3     H1       HT       0.417000        1.0080           0
     51786 WT4      8914     TIP3     H2       HT       0.417000        1.0080           0
     51787 WT4      8925     TIP3     OH2      OT      -0.834000       15.9994           0
     51788 WT4      8925     TIP3     H1       HT       0.417000        1.0080           0
     51789 WT4      8925     TIP3     H2       HT       0.417000        1.0080           0
     51790 WT4      8929     TIP3     OH2      OT      -0.834000       15.9994           0
     51791 WT4      8929     TIP3     H1       HT       0.417000        1.0080           0
     51792 WT4      8929     TIP3     H2       HT       0.417000        1.0080           0
     51793 WT4      8930     TIP3     OH2      OT      -0.834000       15.9994           0
     51794 WT4      8930     TIP3     H1       HT       0.417000        1.0080           0
     51795 WT4      8930     TIP3     H2       HT       0.417000        1.0080           0
     51796 WT4      8931     TIP3     OH2      OT      -0.834000       15.9994           0
     51797 WT4      8931     TIP3     H1       HT       0.417000        1.0080           0
     51798 WT4      8931     TIP3     H2       HT       0.417000        1.0080           0
     51799 WT4      8932     TIP3     OH2      OT      -0.834000       15.9994           0
     51800 WT4      8932     TIP3     H1       HT       0.417000        1.0080           0
     51801 WT4      8932     TIP3     H2       HT       0.417000        1.0080           0
     51802 WT4      8935     TIP3     OH2      OT      -0.834000       15.9994           0
     51803 WT4      8935     TIP3     H1       HT       0.417000        1.0080           0
     51804 WT4      8935     TIP3     H2       HT       0.417000        1.0080           0
     51805 WT4      8944     TIP3     OH2      OT      -0.834000       15.9994           0
     51806 WT4      8944     TIP3     H1       HT       0.417000        1.0080           0
     51807 WT4      8944     TIP3     H2       HT       0.417000        1.0080           0
     51808 WT4      8949     TIP3     OH2      OT      -0.834000       15.9994           0
     51809 WT4      8949     TIP3     H1       HT       0.417000        1.0080           0
     51810 WT4      8949     TIP3     H2       HT       0.417000        1.0080           0
     51811 WT4      8951     TIP3     OH2      OT      -0.834000       15.9994           0
     51812 WT4      8951     TIP3     H1       HT       0.417000        1.0080           0
     51813 WT4      8951     TIP3     H2       HT       0.417000        1.0080           0
     51814 WT4      8952     TIP3     OH2      OT      -0.834000       15.9994           0
     51815 WT4      8952     TIP3     H1       HT       0.417000        1.0080           0
     51816 WT4      8952     TIP3     H2       HT       0.417000        1.0080           0
     51817 WT4      8953     TIP3     OH2      OT      -0.834000       15.9994           0
     51818 WT4      8953     TIP3     H1       HT       0.417000        1.0080           0
     51819 WT4      8953     TIP3     H2       HT       0.417000        1.0080           0
     51820 WT4      8956     TIP3     OH2      OT      -0.834000       15.9994           0
     51821 WT4      8956     TIP3     H1       HT       0.417000        1.0080           0
     51822 WT4      8956     TIP3     H2       HT       0.417000        1.0080           0
     51823 WT4      8970     TIP3     OH2      OT      -0.834000       15.9994           0
     51824 WT4      8970     TIP3     H1       HT       0.417000        1.0080           0
     51825 WT4      8970     TIP3     H2       HT       0.417000        1.0080           0
     51826 WT4      8971     TIP3     OH2      OT      -0.834000       15.9994           0
     51827 WT4      8971     TIP3     H1       HT       0.417000        1.0080           0
     51828 WT4      8971     TIP3     H2       HT       0.417000        1.0080           0
     51829 WT4      8974     TIP3     OH2      OT      -0.834000       15.9994           0
     51830 WT4      8974     TIP3     H1       HT       0.417000        1.0080           0
     51831 WT4      8974     TIP3     H2       HT       0.417000        1.0080           0
     51832 WT4      8975     TIP3     OH2      OT      -0.834000       15.9994           0
     51833 WT4      8975     TIP3     H1       HT       0.417000        1.0080           0
     51834 WT4      8975     TIP3     H2       HT       0.417000        1.0080           0
     51835 WT4      8977     TIP3     OH2      OT      -0.834000       15.9994           0
     51836 WT4      8977     TIP3     H1       HT       0.417000        1.0080           0
     51837 WT4      8977     TIP3     H2       HT       0.417000        1.0080           0
     51838 WT4      8978     TIP3     OH2      OT      -0.834000       15.9994           0
     51839 WT4      8978     TIP3     H1       HT       0.417000        1.0080           0
     51840 WT4      8978     TIP3     H2       HT       0.417000        1.0080           0
     51841 WT4      8988     TIP3     OH2      OT      -0.834000       15.9994           0
     51842 WT4      8988     TIP3     H1       HT       0.417000        1.0080           0
     51843 WT4      8988     TIP3     H2       HT       0.417000        1.0080           0
     51844 WT4      8993     TIP3     OH2      OT      -0.834000       15.9994           0
     51845 WT4      8993     TIP3     H1       HT       0.417000        1.0080           0
     51846 WT4      8993     TIP3     H2       HT       0.417000        1.0080           0
     51847 WT4      8996     TIP3     OH2      OT      -0.834000       15.9994           0
     51848 WT4      8996     TIP3     H1       HT       0.417000        1.0080           0
     51849 WT4      8996     TIP3     H2       HT       0.417000        1.0080           0
     51850 WT4      8997     TIP3     OH2      OT      -0.834000       15.9994           0
     51851 WT4      8997     TIP3     H1       HT       0.417000        1.0080           0
     51852 WT4      8997     TIP3     H2       HT       0.417000        1.0080           0
     51853 WT4      9008     TIP3     OH2      OT      -0.834000       15.9994           0
     51854 WT4      9008     TIP3     H1       HT       0.417000        1.0080           0
     51855 WT4      9008     TIP3     H2       HT       0.417000        1.0080           0
     51856 WT4      9009     TIP3     OH2      OT      -0.834000       15.9994           0
     51857 WT4      9009     TIP3     H1       HT       0.417000        1.0080           0
     51858 WT4      9009     TIP3     H2       HT       0.417000        1.0080           0
     51859 WT4      9019     TIP3     OH2      OT      -0.834000       15.9994           0
     51860 WT4      9019     TIP3     H1       HT       0.417000        1.0080           0
     51861 WT4      9019     TIP3     H2       HT       0.417000        1.0080           0
     51862 WT4      9039     TIP3     OH2      OT      -0.834000       15.9994           0
     51863 WT4      9039     TIP3     H1       HT       0.417000        1.0080           0
     51864 WT4      9039     TIP3     H2       HT       0.417000        1.0080           0
     51865 WT4      9041     TIP3     OH2      OT      -0.834000       15.9994           0
     51866 WT4      9041     TIP3     H1       HT       0.417000        1.0080           0
     51867 WT4      9041     TIP3     H2       HT       0.417000        1.0080           0
     51868 WT4      9060     TIP3     OH2      OT      -0.834000       15.9994           0
     51869 WT4      9060     TIP3     H1       HT       0.417000        1.0080           0
     51870 WT4      9060     TIP3     H2       HT       0.417000        1.0080           0
     51871 WT4      9082     TIP3     OH2      OT      -0.834000       15.9994           0
     51872 WT4      9082     TIP3     H1       HT       0.417000        1.0080           0
     51873 WT4      9082     TIP3     H2       HT       0.417000        1.0080           0
     51874 WT4      9096     TIP3     OH2      OT      -0.834000       15.9994           0
     51875 WT4      9096     TIP3     H1       HT       0.417000        1.0080           0
     51876 WT4      9096     TIP3     H2       HT       0.417000        1.0080           0
     51877 WT4      9168     TIP3     OH2      OT      -0.834000       15.9994           0
     51878 WT4      9168     TIP3     H1       HT       0.417000        1.0080           0
     51879 WT4      9168     TIP3     H2       HT       0.417000        1.0080           0
     51880 WT4      9201     TIP3     OH2      OT      -0.834000       15.9994           0
     51881 WT4      9201     TIP3     H1       HT       0.417000        1.0080           0
     51882 WT4      9201     TIP3     H2       HT       0.417000        1.0080           0
     51883 WT4      9226     TIP3     OH2      OT      -0.834000       15.9994           0
     51884 WT4      9226     TIP3     H1       HT       0.417000        1.0080           0
     51885 WT4      9226     TIP3     H2       HT       0.417000        1.0080           0
     51886 WT4      9230     TIP3     OH2      OT      -0.834000       15.9994           0
     51887 WT4      9230     TIP3     H1       HT       0.417000        1.0080           0
     51888 WT4      9230     TIP3     H2       HT       0.417000        1.0080           0
     51889 WT4      9241     TIP3     OH2      OT      -0.834000       15.9994           0
     51890 WT4      9241     TIP3     H1       HT       0.417000        1.0080           0
     51891 WT4      9241     TIP3     H2       HT       0.417000        1.0080           0
     51892 WT4      9243     TIP3     OH2      OT      -0.834000       15.9994           0
     51893 WT4      9243     TIP3     H1       HT       0.417000        1.0080           0
     51894 WT4      9243     TIP3     H2       HT       0.417000        1.0080           0
     51895 WT4      9246     TIP3     OH2      OT      -0.834000       15.9994           0
     51896 WT4      9246     TIP3     H1       HT       0.417000        1.0080           0
     51897 WT4      9246     TIP3     H2       HT       0.417000        1.0080           0
     51898 WT4      9250     TIP3     OH2      OT      -0.834000       15.9994           0
     51899 WT4      9250     TIP3     H1       HT       0.417000        1.0080           0
     51900 WT4      9250     TIP3     H2       HT       0.417000        1.0080           0
     51901 WT4      9261     TIP3     OH2      OT      -0.834000       15.9994           0
     51902 WT4      9261     TIP3     H1       HT       0.417000        1.0080           0
     51903 WT4      9261     TIP3     H2       HT       0.417000        1.0080           0
     51904 WT5      2        TIP3     OH2      OT      -0.834000       15.9994           0
     51905 WT5      2        TIP3     H1       HT       0.417000        1.0080           0
     51906 WT5      2        TIP3     H2       HT       0.417000        1.0080           0
     51907 WT5      3        TIP3     OH2      OT      -0.834000       15.9994           0
     51908 WT5      3        TIP3     H1       HT       0.417000        1.0080           0
     51909 WT5      3        TIP3     H2       HT       0.417000        1.0080           0
     51910 WT5      5        TIP3     OH2      OT      -0.834000       15.9994           0
     51911 WT5      5        TIP3     H1       HT       0.417000        1.0080           0
     51912 WT5      5        TIP3     H2       HT       0.417000        1.0080           0
     51913 WT5      7        TIP3     OH2      OT      -0.834000       15.9994           0
     51914 WT5      7        TIP3     H1       HT       0.417000        1.0080           0
     51915 WT5      7        TIP3     H2       HT       0.417000        1.0080           0
     51916 WT5      8        TIP3     OH2      OT      -0.834000       15.9994           0
     51917 WT5      8        TIP3     H1       HT       0.417000        1.0080           0
     51918 WT5      8        TIP3     H2       HT       0.417000        1.0080           0
     51919 WT5      14       TIP3     OH2      OT      -0.834000       15.9994           0
     51920 WT5      14       TIP3     H1       HT       0.417000        1.0080           0
     51921 WT5      14       TIP3     H2       HT       0.417000        1.0080           0
     51922 WT5      15       TIP3     OH2      OT      -0.834000       15.9994           0
     51923 WT5      15       TIP3     H1       HT       0.417000        1.0080           0
     51924 WT5      15       TIP3     H2       HT       0.417000        1.0080           0
     51925 WT5      17       TIP3     OH2      OT      -0.834000       15.9994           0
     51926 WT5      17       TIP3     H1       HT       0.417000        1.0080           0
     51927 WT5      17       TIP3     H2       HT       0.417000        1.0080           0
     51928 WT5      19       TIP3     OH2      OT      -0.834000       15.9994           0
     51929 WT5      19       TIP3     H1       HT       0.417000        1.0080           0
     51930 WT5      19       TIP3     H2       HT       0.417000        1.0080           0
     51931 WT5      20       TIP3     OH2      OT      -0.834000       15.9994           0
     51932 WT5      20       TIP3     H1       HT       0.417000        1.0080           0
     51933 WT5      20       TIP3     H2       HT       0.417000        1.0080           0
     51934 WT5      21       TIP3     OH2      OT      -0.834000       15.9994           0
     51935 WT5      21       TIP3     H1       HT       0.417000        1.0080           0
     51936 WT5      21       TIP3     H2       HT       0.417000        1.0080           0
     51937 WT5      26       TIP3     OH2      OT      -0.834000       15.9994           0
     51938 WT5      26       TIP3     H1       HT       0.417000        1.0080           0
     51939 WT5      26       TIP3     H2       HT       0.417000        1.0080           0
     51940 WT5      29       TIP3     OH2      OT      -0.834000       15.9994           0
     51941 WT5      29       TIP3     H1       HT       0.417000        1.0080           0
     51942 WT5      29       TIP3     H2       HT       0.417000        1.0080           0
     51943 WT5      30       TIP3     OH2      OT      -0.834000       15.9994           0
     51944 WT5      30       TIP3     H1       HT       0.417000        1.0080           0
     51945 WT5      30       TIP3     H2       HT       0.417000        1.0080           0
     51946 WT5      34       TIP3     OH2      OT      -0.834000       15.9994           0
     51947 WT5      34       TIP3     H1       HT       0.417000        1.0080           0
     51948 WT5      34       TIP3     H2       HT       0.417000        1.0080           0
     51949 WT5      40       TIP3     OH2      OT      -0.834000       15.9994           0
     51950 WT5      40       TIP3     H1       HT       0.417000        1.0080           0
     51951 WT5      40       TIP3     H2       HT       0.417000        1.0080           0
     51952 WT5      41       TIP3     OH2      OT      -0.834000       15.9994           0
     51953 WT5      41       TIP3     H1       HT       0.417000        1.0080           0
     51954 WT5      41       TIP3     H2       HT       0.417000        1.0080           0
     51955 WT5      42       TIP3     OH2      OT      -0.834000       15.9994           0
     51956 WT5      42       TIP3     H1       HT       0.417000        1.0080           0
     51957 WT5      42       TIP3     H2       HT       0.417000        1.0080           0
     51958 WT5      44       TIP3     OH2      OT      -0.834000       15.9994           0
     51959 WT5      44       TIP3     H1       HT       0.417000        1.0080           0
     51960 WT5      44       TIP3     H2       HT       0.417000        1.0080           0
     51961 WT5      46       TIP3     OH2      OT      -0.834000       15.9994           0
     51962 WT5      46       TIP3     H1       HT       0.417000        1.0080           0
     51963 WT5      46       TIP3     H2       HT       0.417000        1.0080           0
     51964 WT5      47       TIP3     OH2      OT      -0.834000       15.9994           0
     51965 WT5      47       TIP3     H1       HT       0.417000        1.0080           0
     51966 WT5      47       TIP3     H2       HT       0.417000        1.0080           0
     51967 WT5      48       TIP3     OH2      OT      -0.834000       15.9994           0
     51968 WT5      48       TIP3     H1       HT       0.417000        1.0080           0
     51969 WT5      48       TIP3     H2       HT       0.417000        1.0080           0
     51970 WT5      49       TIP3     OH2      OT      -0.834000       15.9994           0
     51971 WT5      49       TIP3     H1       HT       0.417000        1.0080           0
     51972 WT5      49       TIP3     H2       HT       0.417000        1.0080           0
     51973 WT5      52       TIP3     OH2      OT      -0.834000       15.9994           0
     51974 WT5      52       TIP3     H1       HT       0.417000        1.0080           0
     51975 WT5      52       TIP3     H2       HT       0.417000        1.0080           0
     51976 WT5      53       TIP3     OH2      OT      -0.834000       15.9994           0
     51977 WT5      53       TIP3     H1       HT       0.417000        1.0080           0
     51978 WT5      53       TIP3     H2       HT       0.417000        1.0080           0
     51979 WT5      55       TIP3     OH2      OT      -0.834000       15.9994           0
     51980 WT5      55       TIP3     H1       HT       0.417000        1.0080           0
     51981 WT5      55       TIP3     H2       HT       0.417000        1.0080           0
     51982 WT5      56       TIP3     OH2      OT      -0.834000       15.9994           0
     51983 WT5      56       TIP3     H1       HT       0.417000        1.0080           0
     51984 WT5      56       TIP3     H2       HT       0.417000        1.0080           0
     51985 WT5      61       TIP3     OH2      OT      -0.834000       15.9994           0
     51986 WT5      61       TIP3     H1       HT       0.417000        1.0080           0
     51987 WT5      61       TIP3     H2       HT       0.417000        1.0080           0
     51988 WT5      64       TIP3     OH2      OT      -0.834000       15.9994           0
     51989 WT5      64       TIP3     H1       HT       0.417000        1.0080           0
     51990 WT5      64       TIP3     H2       HT       0.417000        1.0080           0
     51991 WT5      65       TIP3     OH2      OT      -0.834000       15.9994           0
     51992 WT5      65       TIP3     H1       HT       0.417000        1.0080           0
     51993 WT5      65       TIP3     H2       HT       0.417000        1.0080           0
     51994 WT5      67       TIP3     OH2      OT      -0.834000       15.9994           0
     51995 WT5      67       TIP3     H1       HT       0.417000        1.0080           0
     51996 WT5      67       TIP3     H2       HT       0.417000        1.0080           0
     51997 WT5      68       TIP3     OH2      OT      -0.834000       15.9994           0
     51998 WT5      68       TIP3     H1       HT       0.417000        1.0080           0
     51999 WT5      68       TIP3     H2       HT       0.417000        1.0080           0
     52000 WT5      71       TIP3     OH2      OT      -0.834000       15.9994           0
     52001 WT5      71       TIP3     H1       HT       0.417000        1.0080           0
     52002 WT5      71       TIP3     H2       HT       0.417000        1.0080           0
     52003 WT5      76       TIP3     OH2      OT      -0.834000       15.9994           0
     52004 WT5      76       TIP3     H1       HT       0.417000        1.0080           0
     52005 WT5      76       TIP3     H2       HT       0.417000        1.0080           0
     52006 WT5      77       TIP3     OH2      OT      -0.834000       15.9994           0
     52007 WT5      77       TIP3     H1       HT       0.417000        1.0080           0
     52008 WT5      77       TIP3     H2       HT       0.417000        1.0080           0
     52009 WT5      78       TIP3     OH2      OT      -0.834000       15.9994           0
     52010 WT5      78       TIP3     H1       HT       0.417000        1.0080           0
     52011 WT5      78       TIP3     H2       HT       0.417000        1.0080           0
     52012 WT5      81       TIP3     OH2      OT      -0.834000       15.9994           0
     52013 WT5      81       TIP3     H1       HT       0.417000        1.0080           0
     52014 WT5      81       TIP3     H2       HT       0.417000        1.0080           0
     52015 WT5      85       TIP3     OH2      OT      -0.834000       15.9994           0
     52016 WT5      85       TIP3     H1       HT       0.417000        1.0080           0
     52017 WT5      85       TIP3     H2       HT       0.417000        1.0080           0
     52018 WT5      86       TIP3     OH2      OT      -0.834000       15.9994           0
     52019 WT5      86       TIP3     H1       HT       0.417000        1.0080           0
     52020 WT5      86       TIP3     H2       HT       0.417000        1.0080           0
     52021 WT5      87       TIP3     OH2      OT      -0.834000       15.9994           0
     52022 WT5      87       TIP3     H1       HT       0.417000        1.0080           0
     52023 WT5      87       TIP3     H2       HT       0.417000        1.0080           0
     52024 WT5      88       TIP3     OH2      OT      -0.834000       15.9994           0
     52025 WT5      88       TIP3     H1       HT       0.417000        1.0080           0
     52026 WT5      88       TIP3     H2       HT       0.417000        1.0080           0
     52027 WT5      89       TIP3     OH2      OT      -0.834000       15.9994           0
     52028 WT5      89       TIP3     H1       HT       0.417000        1.0080           0
     52029 WT5      89       TIP3     H2       HT       0.417000        1.0080           0
     52030 WT5      90       TIP3     OH2      OT      -0.834000       15.9994           0
     52031 WT5      90       TIP3     H1       HT       0.417000        1.0080           0
     52032 WT5      90       TIP3     H2       HT       0.417000        1.0080           0
     52033 WT5      94       TIP3     OH2      OT      -0.834000       15.9994           0
     52034 WT5      94       TIP3     H1       HT       0.417000        1.0080           0
     52035 WT5      94       TIP3     H2       HT       0.417000        1.0080           0
     52036 WT5      95       TIP3     OH2      OT      -0.834000       15.9994           0
     52037 WT5      95       TIP3     H1       HT       0.417000        1.0080           0
     52038 WT5      95       TIP3     H2       HT       0.417000        1.0080           0
     52039 WT5      96       TIP3     OH2      OT      -0.834000       15.9994           0
     52040 WT5      96       TIP3     H1       HT       0.417000        1.0080           0
     52041 WT5      96       TIP3     H2       HT       0.417000        1.0080           0
     52042 WT5      97       TIP3     OH2      OT      -0.834000       15.9994           0
     52043 WT5      97       TIP3     H1       HT       0.417000        1.0080           0
     52044 WT5      97       TIP3     H2       HT       0.417000        1.0080           0
     52045 WT5      98       TIP3     OH2      OT      -0.834000       15.9994           0
     52046 WT5      98       TIP3     H1       HT       0.417000        1.0080           0
     52047 WT5      98       TIP3     H2       HT       0.417000        1.0080           0
     52048 WT5      99       TIP3     OH2      OT      -0.834000       15.9994           0
     52049 WT5      99       TIP3     H1       HT       0.417000        1.0080           0
     52050 WT5      99       TIP3     H2       HT       0.417000        1.0080           0
     52051 WT5      103      TIP3     OH2      OT      -0.834000       15.9994           0
     52052 WT5      103      TIP3     H1       HT       0.417000        1.0080           0
     52053 WT5      103      TIP3     H2       HT       0.417000        1.0080           0
     52054 WT5      104      TIP3     OH2      OT      -0.834000       15.9994           0
     52055 WT5      104      TIP3     H1       HT       0.417000        1.0080           0
     52056 WT5      104      TIP3     H2       HT       0.417000        1.0080           0
     52057 WT5      105      TIP3     OH2      OT      -0.834000       15.9994           0
     52058 WT5      105      TIP3     H1       HT       0.417000        1.0080           0
     52059 WT5      105      TIP3     H2       HT       0.417000        1.0080           0
     52060 WT5      108      TIP3     OH2      OT      -0.834000       15.9994           0
     52061 WT5      108      TIP3     H1       HT       0.417000        1.0080           0
     52062 WT5      108      TIP3     H2       HT       0.417000        1.0080           0
     52063 WT5      111      TIP3     OH2      OT      -0.834000       15.9994           0
     52064 WT5      111      TIP3     H1       HT       0.417000        1.0080           0
     52065 WT5      111      TIP3     H2       HT       0.417000        1.0080           0
     52066 WT5      112      TIP3     OH2      OT      -0.834000       15.9994           0
     52067 WT5      112      TIP3     H1       HT       0.417000        1.0080           0
     52068 WT5      112      TIP3     H2       HT       0.417000        1.0080           0
     52069 WT5      113      TIP3     OH2      OT      -0.834000       15.9994           0
     52070 WT5      113      TIP3     H1       HT       0.417000        1.0080           0
     52071 WT5      113      TIP3     H2       HT       0.417000        1.0080           0
     52072 WT5      115      TIP3     OH2      OT      -0.834000       15.9994           0
     52073 WT5      115      TIP3     H1       HT       0.417000        1.0080           0
     52074 WT5      115      TIP3     H2       HT       0.417000        1.0080           0
     52075 WT5      116      TIP3     OH2      OT      -0.834000       15.9994           0
     52076 WT5      116      TIP3     H1       HT       0.417000        1.0080           0
     52077 WT5      116      TIP3     H2       HT       0.417000        1.0080           0
     52078 WT5      122      TIP3     OH2      OT      -0.834000       15.9994           0
     52079 WT5      122      TIP3     H1       HT       0.417000        1.0080           0
     52080 WT5      122      TIP3     H2       HT       0.417000        1.0080           0
     52081 WT5      123      TIP3     OH2      OT      -0.834000       15.9994           0
     52082 WT5      123      TIP3     H1       HT       0.417000        1.0080           0
     52083 WT5      123      TIP3     H2       HT       0.417000        1.0080           0
     52084 WT5      124      TIP3     OH2      OT      -0.834000       15.9994           0
     52085 WT5      124      TIP3     H1       HT       0.417000        1.0080           0
     52086 WT5      124      TIP3     H2       HT       0.417000        1.0080           0
     52087 WT5      125      TIP3     OH2      OT      -0.834000       15.9994           0
     52088 WT5      125      TIP3     H1       HT       0.417000        1.0080           0
     52089 WT5      125      TIP3     H2       HT       0.417000        1.0080           0
     52090 WT5      126      TIP3     OH2      OT      -0.834000       15.9994           0
     52091 WT5      126      TIP3     H1       HT       0.417000        1.0080           0
     52092 WT5      126      TIP3     H2       HT       0.417000        1.0080           0
     52093 WT5      127      TIP3     OH2      OT      -0.834000       15.9994           0
     52094 WT5      127      TIP3     H1       HT       0.417000        1.0080           0
     52095 WT5      127      TIP3     H2       HT       0.417000        1.0080           0
     52096 WT5      128      TIP3     OH2      OT      -0.834000       15.9994           0
     52097 WT5      128      TIP3     H1       HT       0.417000        1.0080           0
     52098 WT5      128      TIP3     H2       HT       0.417000        1.0080           0
     52099 WT5      129      TIP3     OH2      OT      -0.834000       15.9994           0
     52100 WT5      129      TIP3     H1       HT       0.417000        1.0080           0
     52101 WT5      129      TIP3     H2       HT       0.417000        1.0080           0
     52102 WT5      130      TIP3     OH2      OT      -0.834000       15.9994           0
     52103 WT5      130      TIP3     H1       HT       0.417000        1.0080           0
     52104 WT5      130      TIP3     H2       HT       0.417000        1.0080           0
     52105 WT5      133      TIP3     OH2      OT      -0.834000       15.9994           0
     52106 WT5      133      TIP3     H1       HT       0.417000        1.0080           0
     52107 WT5      133      TIP3     H2       HT       0.417000        1.0080           0
     52108 WT5      134      TIP3     OH2      OT      -0.834000       15.9994           0
     52109 WT5      134      TIP3     H1       HT       0.417000        1.0080           0
     52110 WT5      134      TIP3     H2       HT       0.417000        1.0080           0
     52111 WT5      135      TIP3     OH2      OT      -0.834000       15.9994           0
     52112 WT5      135      TIP3     H1       HT       0.417000        1.0080           0
     52113 WT5      135      TIP3     H2       HT       0.417000        1.0080           0
     52114 WT5      137      TIP3     OH2      OT      -0.834000       15.9994           0
     52115 WT5      137      TIP3     H1       HT       0.417000        1.0080           0
     52116 WT5      137      TIP3     H2       HT       0.417000        1.0080           0
     52117 WT5      141      TIP3     OH2      OT      -0.834000       15.9994           0
     52118 WT5      141      TIP3     H1       HT       0.417000        1.0080           0
     52119 WT5      141      TIP3     H2       HT       0.417000        1.0080           0
     52120 WT5      145      TIP3     OH2      OT      -0.834000       15.9994           0
     52121 WT5      145      TIP3     H1       HT       0.417000        1.0080           0
     52122 WT5      145      TIP3     H2       HT       0.417000        1.0080           0
     52123 WT5      146      TIP3     OH2      OT      -0.834000       15.9994           0
     52124 WT5      146      TIP3     H1       HT       0.417000        1.0080           0
     52125 WT5      146      TIP3     H2       HT       0.417000        1.0080           0
     52126 WT5      147      TIP3     OH2      OT      -0.834000       15.9994           0
     52127 WT5      147      TIP3     H1       HT       0.417000        1.0080           0
     52128 WT5      147      TIP3     H2       HT       0.417000        1.0080           0
     52129 WT5      148      TIP3     OH2      OT      -0.834000       15.9994           0
     52130 WT5      148      TIP3     H1       HT       0.417000        1.0080           0
     52131 WT5      148      TIP3     H2       HT       0.417000        1.0080           0
     52132 WT5      149      TIP3     OH2      OT      -0.834000       15.9994           0
     52133 WT5      149      TIP3     H1       HT       0.417000        1.0080           0
     52134 WT5      149      TIP3     H2       HT       0.417000        1.0080           0
     52135 WT5      150      TIP3     OH2      OT      -0.834000       15.9994           0
     52136 WT5      150      TIP3     H1       HT       0.417000        1.0080           0
     52137 WT5      150      TIP3     H2       HT       0.417000        1.0080           0
     52138 WT5      152      TIP3     OH2      OT      -0.834000       15.9994           0
     52139 WT5      152      TIP3     H1       HT       0.417000        1.0080           0
     52140 WT5      152      TIP3     H2       HT       0.417000        1.0080           0
     52141 WT5      153      TIP3     OH2      OT      -0.834000       15.9994           0
     52142 WT5      153      TIP3     H1       HT       0.417000        1.0080           0
     52143 WT5      153      TIP3     H2       HT       0.417000        1.0080           0
     52144 WT5      155      TIP3     OH2      OT      -0.834000       15.9994           0
     52145 WT5      155      TIP3     H1       HT       0.417000        1.0080           0
     52146 WT5      155      TIP3     H2       HT       0.417000        1.0080           0
     52147 WT5      156      TIP3     OH2      OT      -0.834000       15.9994           0
     52148 WT5      156      TIP3     H1       HT       0.417000        1.0080           0
     52149 WT5      156      TIP3     H2       HT       0.417000        1.0080           0
     52150 WT5      162      TIP3     OH2      OT      -0.834000       15.9994           0
     52151 WT5      162      TIP3     H1       HT       0.417000        1.0080           0
     52152 WT5      162      TIP3     H2       HT       0.417000        1.0080           0
     52153 WT5      163      TIP3     OH2      OT      -0.834000       15.9994           0
     52154 WT5      163      TIP3     H1       HT       0.417000        1.0080           0
     52155 WT5      163      TIP3     H2       HT       0.417000        1.0080           0
     52156 WT5      165      TIP3     OH2      OT      -0.834000       15.9994           0
     52157 WT5      165      TIP3     H1       HT       0.417000        1.0080           0
     52158 WT5      165      TIP3     H2       HT       0.417000        1.0080           0
     52159 WT5      167      TIP3     OH2      OT      -0.834000       15.9994           0
     52160 WT5      167      TIP3     H1       HT       0.417000        1.0080           0
     52161 WT5      167      TIP3     H2       HT       0.417000        1.0080           0
     52162 WT5      168      TIP3     OH2      OT      -0.834000       15.9994           0
     52163 WT5      168      TIP3     H1       HT       0.417000        1.0080           0
     52164 WT5      168      TIP3     H2       HT       0.417000        1.0080           0
     52165 WT5      169      TIP3     OH2      OT      -0.834000       15.9994           0
     52166 WT5      169      TIP3     H1       HT       0.417000        1.0080           0
     52167 WT5      169      TIP3     H2       HT       0.417000        1.0080           0
     52168 WT5      172      TIP3     OH2      OT      -0.834000       15.9994           0
     52169 WT5      172      TIP3     H1       HT       0.417000        1.0080           0
     52170 WT5      172      TIP3     H2       HT       0.417000        1.0080           0
     52171 WT5      174      TIP3     OH2      OT      -0.834000       15.9994           0
     52172 WT5      174      TIP3     H1       HT       0.417000        1.0080           0
     52173 WT5      174      TIP3     H2       HT       0.417000        1.0080           0
     52174 WT5      175      TIP3     OH2      OT      -0.834000       15.9994           0
     52175 WT5      175      TIP3     H1       HT       0.417000        1.0080           0
     52176 WT5      175      TIP3     H2       HT       0.417000        1.0080           0
     52177 WT5      177      TIP3     OH2      OT      -0.834000       15.9994           0
     52178 WT5      177      TIP3     H1       HT       0.417000        1.0080           0
     52179 WT5      177      TIP3     H2       HT       0.417000        1.0080           0
     52180 WT5      178      TIP3     OH2      OT      -0.834000       15.9994           0
     52181 WT5      178      TIP3     H1       HT       0.417000        1.0080           0
     52182 WT5      178      TIP3     H2       HT       0.417000        1.0080           0
     52183 WT5      179      TIP3     OH2      OT      -0.834000       15.9994           0
     52184 WT5      179      TIP3     H1       HT       0.417000        1.0080           0
     52185 WT5      179      TIP3     H2       HT       0.417000        1.0080           0
     52186 WT5      180      TIP3     OH2      OT      -0.834000       15.9994           0
     52187 WT5      180      TIP3     H1       HT       0.417000        1.0080           0
     52188 WT5      180      TIP3     H2       HT       0.417000        1.0080           0
     52189 WT5      190      TIP3     OH2      OT      -0.834000       15.9994           0
     52190 WT5      190      TIP3     H1       HT       0.417000        1.0080           0
     52191 WT5      190      TIP3     H2       HT       0.417000        1.0080           0
     52192 WT5      191      TIP3     OH2      OT      -0.834000       15.9994           0
     52193 WT5      191      TIP3     H1       HT       0.417000        1.0080           0
     52194 WT5      191      TIP3     H2       HT       0.417000        1.0080           0
     52195 WT5      194      TIP3     OH2      OT      -0.834000       15.9994           0
     52196 WT5      194      TIP3     H1       HT       0.417000        1.0080           0
     52197 WT5      194      TIP3     H2       HT       0.417000        1.0080           0
     52198 WT5      195      TIP3     OH2      OT      -0.834000       15.9994           0
     52199 WT5      195      TIP3     H1       HT       0.417000        1.0080           0
     52200 WT5      195      TIP3     H2       HT       0.417000        1.0080           0
     52201 WT5      196      TIP3     OH2      OT      -0.834000       15.9994           0
     52202 WT5      196      TIP3     H1       HT       0.417000        1.0080           0
     52203 WT5      196      TIP3     H2       HT       0.417000        1.0080           0
     52204 WT5      197      TIP3     OH2      OT      -0.834000       15.9994           0
     52205 WT5      197      TIP3     H1       HT       0.417000        1.0080           0
     52206 WT5      197      TIP3     H2       HT       0.417000        1.0080           0
     52207 WT5      198      TIP3     OH2      OT      -0.834000       15.9994           0
     52208 WT5      198      TIP3     H1       HT       0.417000        1.0080           0
     52209 WT5      198      TIP3     H2       HT       0.417000        1.0080           0
     52210 WT5      200      TIP3     OH2      OT      -0.834000       15.9994           0
     52211 WT5      200      TIP3     H1       HT       0.417000        1.0080           0
     52212 WT5      200      TIP3     H2       HT       0.417000        1.0080           0
     52213 WT5      201      TIP3     OH2      OT      -0.834000       15.9994           0
     52214 WT5      201      TIP3     H1       HT       0.417000        1.0080           0
     52215 WT5      201      TIP3     H2       HT       0.417000        1.0080           0
     52216 WT5      202      TIP3     OH2      OT      -0.834000       15.9994           0
     52217 WT5      202      TIP3     H1       HT       0.417000        1.0080           0
     52218 WT5      202      TIP3     H2       HT       0.417000        1.0080           0
     52219 WT5      205      TIP3     OH2      OT      -0.834000       15.9994           0
     52220 WT5      205      TIP3     H1       HT       0.417000        1.0080           0
     52221 WT5      205      TIP3     H2       HT       0.417000        1.0080           0
     52222 WT5      206      TIP3     OH2      OT      -0.834000       15.9994           0
     52223 WT5      206      TIP3     H1       HT       0.417000        1.0080           0
     52224 WT5      206      TIP3     H2       HT       0.417000        1.0080           0
     52225 WT5      207      TIP3     OH2      OT      -0.834000       15.9994           0
     52226 WT5      207      TIP3     H1       HT       0.417000        1.0080           0
     52227 WT5      207      TIP3     H2       HT       0.417000        1.0080           0
     52228 WT5      210      TIP3     OH2      OT      -0.834000       15.9994           0
     52229 WT5      210      TIP3     H1       HT       0.417000        1.0080           0
     52230 WT5      210      TIP3     H2       HT       0.417000        1.0080           0
     52231 WT5      212      TIP3     OH2      OT      -0.834000       15.9994           0
     52232 WT5      212      TIP3     H1       HT       0.417000        1.0080           0
     52233 WT5      212      TIP3     H2       HT       0.417000        1.0080           0
     52234 WT5      213      TIP3     OH2      OT      -0.834000       15.9994           0
     52235 WT5      213      TIP3     H1       HT       0.417000        1.0080           0
     52236 WT5      213      TIP3     H2       HT       0.417000        1.0080           0
     52237 WT5      218      TIP3     OH2      OT      -0.834000       15.9994           0
     52238 WT5      218      TIP3     H1       HT       0.417000        1.0080           0
     52239 WT5      218      TIP3     H2       HT       0.417000        1.0080           0
     52240 WT5      222      TIP3     OH2      OT      -0.834000       15.9994           0
     52241 WT5      222      TIP3     H1       HT       0.417000        1.0080           0
     52242 WT5      222      TIP3     H2       HT       0.417000        1.0080           0
     52243 WT5      225      TIP3     OH2      OT      -0.834000       15.9994           0
     52244 WT5      225      TIP3     H1       HT       0.417000        1.0080           0
     52245 WT5      225      TIP3     H2       HT       0.417000        1.0080           0
     52246 WT5      226      TIP3     OH2      OT      -0.834000       15.9994           0
     52247 WT5      226      TIP3     H1       HT       0.417000        1.0080           0
     52248 WT5      226      TIP3     H2       HT       0.417000        1.0080           0
     52249 WT5      227      TIP3     OH2      OT      -0.834000       15.9994           0
     52250 WT5      227      TIP3     H1       HT       0.417000        1.0080           0
     52251 WT5      227      TIP3     H2       HT       0.417000        1.0080           0
     52252 WT5      231      TIP3     OH2      OT      -0.834000       15.9994           0
     52253 WT5      231      TIP3     H1       HT       0.417000        1.0080           0
     52254 WT5      231      TIP3     H2       HT       0.417000        1.0080           0
     52255 WT5      232      TIP3     OH2      OT      -0.834000       15.9994           0
     52256 WT5      232      TIP3     H1       HT       0.417000        1.0080           0
     52257 WT5      232      TIP3     H2       HT       0.417000        1.0080           0
     52258 WT5      234      TIP3     OH2      OT      -0.834000       15.9994           0
     52259 WT5      234      TIP3     H1       HT       0.417000        1.0080           0
     52260 WT5      234      TIP3     H2       HT       0.417000        1.0080           0
     52261 WT5      237      TIP3     OH2      OT      -0.834000       15.9994           0
     52262 WT5      237      TIP3     H1       HT       0.417000        1.0080           0
     52263 WT5      237      TIP3     H2       HT       0.417000        1.0080           0
     52264 WT5      238      TIP3     OH2      OT      -0.834000       15.9994           0
     52265 WT5      238      TIP3     H1       HT       0.417000        1.0080           0
     52266 WT5      238      TIP3     H2       HT       0.417000        1.0080           0
     52267 WT5      239      TIP3     OH2      OT      -0.834000       15.9994           0
     52268 WT5      239      TIP3     H1       HT       0.417000        1.0080           0
     52269 WT5      239      TIP3     H2       HT       0.417000        1.0080           0
     52270 WT5      242      TIP3     OH2      OT      -0.834000       15.9994           0
     52271 WT5      242      TIP3     H1       HT       0.417000        1.0080           0
     52272 WT5      242      TIP3     H2       HT       0.417000        1.0080           0
     52273 WT5      247      TIP3     OH2      OT      -0.834000       15.9994           0
     52274 WT5      247      TIP3     H1       HT       0.417000        1.0080           0
     52275 WT5      247      TIP3     H2       HT       0.417000        1.0080           0
     52276 WT5      248      TIP3     OH2      OT      -0.834000       15.9994           0
     52277 WT5      248      TIP3     H1       HT       0.417000        1.0080           0
     52278 WT5      248      TIP3     H2       HT       0.417000        1.0080           0
     52279 WT5      250      TIP3     OH2      OT      -0.834000       15.9994           0
     52280 WT5      250      TIP3     H1       HT       0.417000        1.0080           0
     52281 WT5      250      TIP3     H2       HT       0.417000        1.0080           0
     52282 WT5      251      TIP3     OH2      OT      -0.834000       15.9994           0
     52283 WT5      251      TIP3     H1       HT       0.417000        1.0080           0
     52284 WT5      251      TIP3     H2       HT       0.417000        1.0080           0
     52285 WT5      252      TIP3     OH2      OT      -0.834000       15.9994           0
     52286 WT5      252      TIP3     H1       HT       0.417000        1.0080           0
     52287 WT5      252      TIP3     H2       HT       0.417000        1.0080           0
     52288 WT5      253      TIP3     OH2      OT      -0.834000       15.9994           0
     52289 WT5      253      TIP3     H1       HT       0.417000        1.0080           0
     52290 WT5      253      TIP3     H2       HT       0.417000        1.0080           0
     52291 WT5      254      TIP3     OH2      OT      -0.834000       15.9994           0
     52292 WT5      254      TIP3     H1       HT       0.417000        1.0080           0
     52293 WT5      254      TIP3     H2       HT       0.417000        1.0080           0
     52294 WT5      255      TIP3     OH2      OT      -0.834000       15.9994           0
     52295 WT5      255      TIP3     H1       HT       0.417000        1.0080           0
     52296 WT5      255      TIP3     H2       HT       0.417000        1.0080           0
     52297 WT5      257      TIP3     OH2      OT      -0.834000       15.9994           0
     52298 WT5      257      TIP3     H1       HT       0.417000        1.0080           0
     52299 WT5      257      TIP3     H2       HT       0.417000        1.0080           0
     52300 WT5      258      TIP3     OH2      OT      -0.834000       15.9994           0
     52301 WT5      258      TIP3     H1       HT       0.417000        1.0080           0
     52302 WT5      258      TIP3     H2       HT       0.417000        1.0080           0
     52303 WT5      259      TIP3     OH2      OT      -0.834000       15.9994           0
     52304 WT5      259      TIP3     H1       HT       0.417000        1.0080           0
     52305 WT5      259      TIP3     H2       HT       0.417000        1.0080           0
     52306 WT5      261      TIP3     OH2      OT      -0.834000       15.9994           0
     52307 WT5      261      TIP3     H1       HT       0.417000        1.0080           0
     52308 WT5      261      TIP3     H2       HT       0.417000        1.0080           0
     52309 WT5      262      TIP3     OH2      OT      -0.834000       15.9994           0
     52310 WT5      262      TIP3     H1       HT       0.417000        1.0080           0
     52311 WT5      262      TIP3     H2       HT       0.417000        1.0080           0
     52312 WT5      267      TIP3     OH2      OT      -0.834000       15.9994           0
     52313 WT5      267      TIP3     H1       HT       0.417000        1.0080           0
     52314 WT5      267      TIP3     H2       HT       0.417000        1.0080           0
     52315 WT5      268      TIP3     OH2      OT      -0.834000       15.9994           0
     52316 WT5      268      TIP3     H1       HT       0.417000        1.0080           0
     52317 WT5      268      TIP3     H2       HT       0.417000        1.0080           0
     52318 WT5      269      TIP3     OH2      OT      -0.834000       15.9994           0
     52319 WT5      269      TIP3     H1       HT       0.417000        1.0080           0
     52320 WT5      269      TIP3     H2       HT       0.417000        1.0080           0
     52321 WT5      281      TIP3     OH2      OT      -0.834000       15.9994           0
     52322 WT5      281      TIP3     H1       HT       0.417000        1.0080           0
     52323 WT5      281      TIP3     H2       HT       0.417000        1.0080           0
     52324 WT5      283      TIP3     OH2      OT      -0.834000       15.9994           0
     52325 WT5      283      TIP3     H1       HT       0.417000        1.0080           0
     52326 WT5      283      TIP3     H2       HT       0.417000        1.0080           0
     52327 WT5      284      TIP3     OH2      OT      -0.834000       15.9994           0
     52328 WT5      284      TIP3     H1       HT       0.417000        1.0080           0
     52329 WT5      284      TIP3     H2       HT       0.417000        1.0080           0
     52330 WT5      285      TIP3     OH2      OT      -0.834000       15.9994           0
     52331 WT5      285      TIP3     H1       HT       0.417000        1.0080           0
     52332 WT5      285      TIP3     H2       HT       0.417000        1.0080           0
     52333 WT5      292      TIP3     OH2      OT      -0.834000       15.9994           0
     52334 WT5      292      TIP3     H1       HT       0.417000        1.0080           0
     52335 WT5      292      TIP3     H2       HT       0.417000        1.0080           0
     52336 WT5      295      TIP3     OH2      OT      -0.834000       15.9994           0
     52337 WT5      295      TIP3     H1       HT       0.417000        1.0080           0
     52338 WT5      295      TIP3     H2       HT       0.417000        1.0080           0
     52339 WT5      302      TIP3     OH2      OT      -0.834000       15.9994           0
     52340 WT5      302      TIP3     H1       HT       0.417000        1.0080           0
     52341 WT5      302      TIP3     H2       HT       0.417000        1.0080           0
     52342 WT5      303      TIP3     OH2      OT      -0.834000       15.9994           0
     52343 WT5      303      TIP3     H1       HT       0.417000        1.0080           0
     52344 WT5      303      TIP3     H2       HT       0.417000        1.0080           0
     52345 WT5      305      TIP3     OH2      OT      -0.834000       15.9994           0
     52346 WT5      305      TIP3     H1       HT       0.417000        1.0080           0
     52347 WT5      305      TIP3     H2       HT       0.417000        1.0080           0
     52348 WT5      306      TIP3     OH2      OT      -0.834000       15.9994           0
     52349 WT5      306      TIP3     H1       HT       0.417000        1.0080           0
     52350 WT5      306      TIP3     H2       HT       0.417000        1.0080           0
     52351 WT5      307      TIP3     OH2      OT      -0.834000       15.9994           0
     52352 WT5      307      TIP3     H1       HT       0.417000        1.0080           0
     52353 WT5      307      TIP3     H2       HT       0.417000        1.0080           0
     52354 WT5      309      TIP3     OH2      OT      -0.834000       15.9994           0
     52355 WT5      309      TIP3     H1       HT       0.417000        1.0080           0
     52356 WT5      309      TIP3     H2       HT       0.417000        1.0080           0
     52357 WT5      311      TIP3     OH2      OT      -0.834000       15.9994           0
     52358 WT5      311      TIP3     H1       HT       0.417000        1.0080           0
     52359 WT5      311      TIP3     H2       HT       0.417000        1.0080           0
     52360 WT5      313      TIP3     OH2      OT      -0.834000       15.9994           0
     52361 WT5      313      TIP3     H1       HT       0.417000        1.0080           0
     52362 WT5      313      TIP3     H2       HT       0.417000        1.0080           0
     52363 WT5      314      TIP3     OH2      OT      -0.834000       15.9994           0
     52364 WT5      314      TIP3     H1       HT       0.417000        1.0080           0
     52365 WT5      314      TIP3     H2       HT       0.417000        1.0080           0
     52366 WT5      316      TIP3     OH2      OT      -0.834000       15.9994           0
     52367 WT5      316      TIP3     H1       HT       0.417000        1.0080           0
     52368 WT5      316      TIP3     H2       HT       0.417000        1.0080           0
     52369 WT5      317      TIP3     OH2      OT      -0.834000       15.9994           0
     52370 WT5      317      TIP3     H1       HT       0.417000        1.0080           0
     52371 WT5      317      TIP3     H2       HT       0.417000        1.0080           0
     52372 WT5      322      TIP3     OH2      OT      -0.834000       15.9994           0
     52373 WT5      322      TIP3     H1       HT       0.417000        1.0080           0
     52374 WT5      322      TIP3     H2       HT       0.417000        1.0080           0
     52375 WT5      323      TIP3     OH2      OT      -0.834000       15.9994           0
     52376 WT5      323      TIP3     H1       HT       0.417000        1.0080           0
     52377 WT5      323      TIP3     H2       HT       0.417000        1.0080           0
     52378 WT5      325      TIP3     OH2      OT      -0.834000       15.9994           0
     52379 WT5      325      TIP3     H1       HT       0.417000        1.0080           0
     52380 WT5      325      TIP3     H2       HT       0.417000        1.0080           0
     52381 WT5      326      TIP3     OH2      OT      -0.834000       15.9994           0
     52382 WT5      326      TIP3     H1       HT       0.417000        1.0080           0
     52383 WT5      326      TIP3     H2       HT       0.417000        1.0080           0
     52384 WT5      327      TIP3     OH2      OT      -0.834000       15.9994           0
     52385 WT5      327      TIP3     H1       HT       0.417000        1.0080           0
     52386 WT5      327      TIP3     H2       HT       0.417000        1.0080           0
     52387 WT5      328      TIP3     OH2      OT      -0.834000       15.9994           0
     52388 WT5      328      TIP3     H1       HT       0.417000        1.0080           0
     52389 WT5      328      TIP3     H2       HT       0.417000        1.0080           0
     52390 WT5      329      TIP3     OH2      OT      -0.834000       15.9994           0
     52391 WT5      329      TIP3     H1       HT       0.417000        1.0080           0
     52392 WT5      329      TIP3     H2       HT       0.417000        1.0080           0
     52393 WT5      332      TIP3     OH2      OT      -0.834000       15.9994           0
     52394 WT5      332      TIP3     H1       HT       0.417000        1.0080           0
     52395 WT5      332      TIP3     H2       HT       0.417000        1.0080           0
     52396 WT5      335      TIP3     OH2      OT      -0.834000       15.9994           0
     52397 WT5      335      TIP3     H1       HT       0.417000        1.0080           0
     52398 WT5      335      TIP3     H2       HT       0.417000        1.0080           0
     52399 WT5      336      TIP3     OH2      OT      -0.834000       15.9994           0
     52400 WT5      336      TIP3     H1       HT       0.417000        1.0080           0
     52401 WT5      336      TIP3     H2       HT       0.417000        1.0080           0
     52402 WT5      338      TIP3     OH2      OT      -0.834000       15.9994           0
     52403 WT5      338      TIP3     H1       HT       0.417000        1.0080           0
     52404 WT5      338      TIP3     H2       HT       0.417000        1.0080           0
     52405 WT5      344      TIP3     OH2      OT      -0.834000       15.9994           0
     52406 WT5      344      TIP3     H1       HT       0.417000        1.0080           0
     52407 WT5      344      TIP3     H2       HT       0.417000        1.0080           0
     52408 WT5      347      TIP3     OH2      OT      -0.834000       15.9994           0
     52409 WT5      347      TIP3     H1       HT       0.417000        1.0080           0
     52410 WT5      347      TIP3     H2       HT       0.417000        1.0080           0
     52411 WT5      348      TIP3     OH2      OT      -0.834000       15.9994           0
     52412 WT5      348      TIP3     H1       HT       0.417000        1.0080           0
     52413 WT5      348      TIP3     H2       HT       0.417000        1.0080           0
     52414 WT5      349      TIP3     OH2      OT      -0.834000       15.9994           0
     52415 WT5      349      TIP3     H1       HT       0.417000        1.0080           0
     52416 WT5      349      TIP3     H2       HT       0.417000        1.0080           0
     52417 WT5      352      TIP3     OH2      OT      -0.834000       15.9994           0
     52418 WT5      352      TIP3     H1       HT       0.417000        1.0080           0
     52419 WT5      352      TIP3     H2       HT       0.417000        1.0080           0
     52420 WT5      353      TIP3     OH2      OT      -0.834000       15.9994           0
     52421 WT5      353      TIP3     H1       HT       0.417000        1.0080           0
     52422 WT5      353      TIP3     H2       HT       0.417000        1.0080           0
     52423 WT5      356      TIP3     OH2      OT      -0.834000       15.9994           0
     52424 WT5      356      TIP3     H1       HT       0.417000        1.0080           0
     52425 WT5      356      TIP3     H2       HT       0.417000        1.0080           0
     52426 WT5      359      TIP3     OH2      OT      -0.834000       15.9994           0
     52427 WT5      359      TIP3     H1       HT       0.417000        1.0080           0
     52428 WT5      359      TIP3     H2       HT       0.417000        1.0080           0
     52429 WT5      362      TIP3     OH2      OT      -0.834000       15.9994           0
     52430 WT5      362      TIP3     H1       HT       0.417000        1.0080           0
     52431 WT5      362      TIP3     H2       HT       0.417000        1.0080           0
     52432 WT5      364      TIP3     OH2      OT      -0.834000       15.9994           0
     52433 WT5      364      TIP3     H1       HT       0.417000        1.0080           0
     52434 WT5      364      TIP3     H2       HT       0.417000        1.0080           0
     52435 WT5      365      TIP3     OH2      OT      -0.834000       15.9994           0
     52436 WT5      365      TIP3     H1       HT       0.417000        1.0080           0
     52437 WT5      365      TIP3     H2       HT       0.417000        1.0080           0
     52438 WT5      366      TIP3     OH2      OT      -0.834000       15.9994           0
     52439 WT5      366      TIP3     H1       HT       0.417000        1.0080           0
     52440 WT5      366      TIP3     H2       HT       0.417000        1.0080           0
     52441 WT5      367      TIP3     OH2      OT      -0.834000       15.9994           0
     52442 WT5      367      TIP3     H1       HT       0.417000        1.0080           0
     52443 WT5      367      TIP3     H2       HT       0.417000        1.0080           0
     52444 WT5      368      TIP3     OH2      OT      -0.834000       15.9994           0
     52445 WT5      368      TIP3     H1       HT       0.417000        1.0080           0
     52446 WT5      368      TIP3     H2       HT       0.417000        1.0080           0
     52447 WT5      369      TIP3     OH2      OT      -0.834000       15.9994           0
     52448 WT5      369      TIP3     H1       HT       0.417000        1.0080           0
     52449 WT5      369      TIP3     H2       HT       0.417000        1.0080           0
     52450 WT5      371      TIP3     OH2      OT      -0.834000       15.9994           0
     52451 WT5      371      TIP3     H1       HT       0.417000        1.0080           0
     52452 WT5      371      TIP3     H2       HT       0.417000        1.0080           0
     52453 WT5      372      TIP3     OH2      OT      -0.834000       15.9994           0
     52454 WT5      372      TIP3     H1       HT       0.417000        1.0080           0
     52455 WT5      372      TIP3     H2       HT       0.417000        1.0080           0
     52456 WT5      378      TIP3     OH2      OT      -0.834000       15.9994           0
     52457 WT5      378      TIP3     H1       HT       0.417000        1.0080           0
     52458 WT5      378      TIP3     H2       HT       0.417000        1.0080           0
     52459 WT5      379      TIP3     OH2      OT      -0.834000       15.9994           0
     52460 WT5      379      TIP3     H1       HT       0.417000        1.0080           0
     52461 WT5      379      TIP3     H2       HT       0.417000        1.0080           0
     52462 WT5      380      TIP3     OH2      OT      -0.834000       15.9994           0
     52463 WT5      380      TIP3     H1       HT       0.417000        1.0080           0
     52464 WT5      380      TIP3     H2       HT       0.417000        1.0080           0
     52465 WT5      384      TIP3     OH2      OT      -0.834000       15.9994           0
     52466 WT5      384      TIP3     H1       HT       0.417000        1.0080           0
     52467 WT5      384      TIP3     H2       HT       0.417000        1.0080           0
     52468 WT5      387      TIP3     OH2      OT      -0.834000       15.9994           0
     52469 WT5      387      TIP3     H1       HT       0.417000        1.0080           0
     52470 WT5      387      TIP3     H2       HT       0.417000        1.0080           0
     52471 WT5      388      TIP3     OH2      OT      -0.834000       15.9994           0
     52472 WT5      388      TIP3     H1       HT       0.417000        1.0080           0
     52473 WT5      388      TIP3     H2       HT       0.417000        1.0080           0
     52474 WT5      389      TIP3     OH2      OT      -0.834000       15.9994           0
     52475 WT5      389      TIP3     H1       HT       0.417000        1.0080           0
     52476 WT5      389      TIP3     H2       HT       0.417000        1.0080           0
     52477 WT5      390      TIP3     OH2      OT      -0.834000       15.9994           0
     52478 WT5      390      TIP3     H1       HT       0.417000        1.0080           0
     52479 WT5      390      TIP3     H2       HT       0.417000        1.0080           0
     52480 WT5      391      TIP3     OH2      OT      -0.834000       15.9994           0
     52481 WT5      391      TIP3     H1       HT       0.417000        1.0080           0
     52482 WT5      391      TIP3     H2       HT       0.417000        1.0080           0
     52483 WT5      392      TIP3     OH2      OT      -0.834000       15.9994           0
     52484 WT5      392      TIP3     H1       HT       0.417000        1.0080           0
     52485 WT5      392      TIP3     H2       HT       0.417000        1.0080           0
     52486 WT5      393      TIP3     OH2      OT      -0.834000       15.9994           0
     52487 WT5      393      TIP3     H1       HT       0.417000        1.0080           0
     52488 WT5      393      TIP3     H2       HT       0.417000        1.0080           0
     52489 WT5      397      TIP3     OH2      OT      -0.834000       15.9994           0
     52490 WT5      397      TIP3     H1       HT       0.417000        1.0080           0
     52491 WT5      397      TIP3     H2       HT       0.417000        1.0080           0
     52492 WT5      399      TIP3     OH2      OT      -0.834000       15.9994           0
     52493 WT5      399      TIP3     H1       HT       0.417000        1.0080           0
     52494 WT5      399      TIP3     H2       HT       0.417000        1.0080           0
     52495 WT5      400      TIP3     OH2      OT      -0.834000       15.9994           0
     52496 WT5      400      TIP3     H1       HT       0.417000        1.0080           0
     52497 WT5      400      TIP3     H2       HT       0.417000        1.0080           0
     52498 WT5      401      TIP3     OH2      OT      -0.834000       15.9994           0
     52499 WT5      401      TIP3     H1       HT       0.417000        1.0080           0
     52500 WT5      401      TIP3     H2       HT       0.417000        1.0080           0
     52501 WT5      402      TIP3     OH2      OT      -0.834000       15.9994           0
     52502 WT5      402      TIP3     H1       HT       0.417000        1.0080           0
     52503 WT5      402      TIP3     H2       HT       0.417000        1.0080           0
     52504 WT5      403      TIP3     OH2      OT      -0.834000       15.9994           0
     52505 WT5      403      TIP3     H1       HT       0.417000        1.0080           0
     52506 WT5      403      TIP3     H2       HT       0.417000        1.0080           0
     52507 WT5      404      TIP3     OH2      OT      -0.834000       15.9994           0
     52508 WT5      404      TIP3     H1       HT       0.417000        1.0080           0
     52509 WT5      404      TIP3     H2       HT       0.417000        1.0080           0
     52510 WT5      409      TIP3     OH2      OT      -0.834000       15.9994           0
     52511 WT5      409      TIP3     H1       HT       0.417000        1.0080           0
     52512 WT5      409      TIP3     H2       HT       0.417000        1.0080           0
     52513 WT5      411      TIP3     OH2      OT      -0.834000       15.9994           0
     52514 WT5      411      TIP3     H1       HT       0.417000        1.0080           0
     52515 WT5      411      TIP3     H2       HT       0.417000        1.0080           0
     52516 WT5      417      TIP3     OH2      OT      -0.834000       15.9994           0
     52517 WT5      417      TIP3     H1       HT       0.417000        1.0080           0
     52518 WT5      417      TIP3     H2       HT       0.417000        1.0080           0
     52519 WT5      418      TIP3     OH2      OT      -0.834000       15.9994           0
     52520 WT5      418      TIP3     H1       HT       0.417000        1.0080           0
     52521 WT5      418      TIP3     H2       HT       0.417000        1.0080           0
     52522 WT5      419      TIP3     OH2      OT      -0.834000       15.9994           0
     52523 WT5      419      TIP3     H1       HT       0.417000        1.0080           0
     52524 WT5      419      TIP3     H2       HT       0.417000        1.0080           0
     52525 WT5      422      TIP3     OH2      OT      -0.834000       15.9994           0
     52526 WT5      422      TIP3     H1       HT       0.417000        1.0080           0
     52527 WT5      422      TIP3     H2       HT       0.417000        1.0080           0
     52528 WT5      424      TIP3     OH2      OT      -0.834000       15.9994           0
     52529 WT5      424      TIP3     H1       HT       0.417000        1.0080           0
     52530 WT5      424      TIP3     H2       HT       0.417000        1.0080           0
     52531 WT5      425      TIP3     OH2      OT      -0.834000       15.9994           0
     52532 WT5      425      TIP3     H1       HT       0.417000        1.0080           0
     52533 WT5      425      TIP3     H2       HT       0.417000        1.0080           0
     52534 WT5      427      TIP3     OH2      OT      -0.834000       15.9994           0
     52535 WT5      427      TIP3     H1       HT       0.417000        1.0080           0
     52536 WT5      427      TIP3     H2       HT       0.417000        1.0080           0
     52537 WT5      431      TIP3     OH2      OT      -0.834000       15.9994           0
     52538 WT5      431      TIP3     H1       HT       0.417000        1.0080           0
     52539 WT5      431      TIP3     H2       HT       0.417000        1.0080           0
     52540 WT5      432      TIP3     OH2      OT      -0.834000       15.9994           0
     52541 WT5      432      TIP3     H1       HT       0.417000        1.0080           0
     52542 WT5      432      TIP3     H2       HT       0.417000        1.0080           0
     52543 WT5      433      TIP3     OH2      OT      -0.834000       15.9994           0
     52544 WT5      433      TIP3     H1       HT       0.417000        1.0080           0
     52545 WT5      433      TIP3     H2       HT       0.417000        1.0080           0
     52546 WT5      437      TIP3     OH2      OT      -0.834000       15.9994           0
     52547 WT5      437      TIP3     H1       HT       0.417000        1.0080           0
     52548 WT5      437      TIP3     H2       HT       0.417000        1.0080           0
     52549 WT5      443      TIP3     OH2      OT      -0.834000       15.9994           0
     52550 WT5      443      TIP3     H1       HT       0.417000        1.0080           0
     52551 WT5      443      TIP3     H2       HT       0.417000        1.0080           0
     52552 WT5      446      TIP3     OH2      OT      -0.834000       15.9994           0
     52553 WT5      446      TIP3     H1       HT       0.417000        1.0080           0
     52554 WT5      446      TIP3     H2       HT       0.417000        1.0080           0
     52555 WT5      448      TIP3     OH2      OT      -0.834000       15.9994           0
     52556 WT5      448      TIP3     H1       HT       0.417000        1.0080           0
     52557 WT5      448      TIP3     H2       HT       0.417000        1.0080           0
     52558 WT5      450      TIP3     OH2      OT      -0.834000       15.9994           0
     52559 WT5      450      TIP3     H1       HT       0.417000        1.0080           0
     52560 WT5      450      TIP3     H2       HT       0.417000        1.0080           0
     52561 WT5      452      TIP3     OH2      OT      -0.834000       15.9994           0
     52562 WT5      452      TIP3     H1       HT       0.417000        1.0080           0
     52563 WT5      452      TIP3     H2       HT       0.417000        1.0080           0
     52564 WT5      456      TIP3     OH2      OT      -0.834000       15.9994           0
     52565 WT5      456      TIP3     H1       HT       0.417000        1.0080           0
     52566 WT5      456      TIP3     H2       HT       0.417000        1.0080           0
     52567 WT5      457      TIP3     OH2      OT      -0.834000       15.9994           0
     52568 WT5      457      TIP3     H1       HT       0.417000        1.0080           0
     52569 WT5      457      TIP3     H2       HT       0.417000        1.0080           0
     52570 WT5      460      TIP3     OH2      OT      -0.834000       15.9994           0
     52571 WT5      460      TIP3     H1       HT       0.417000        1.0080           0
     52572 WT5      460      TIP3     H2       HT       0.417000        1.0080           0
     52573 WT5      461      TIP3     OH2      OT      -0.834000       15.9994           0
     52574 WT5      461      TIP3     H1       HT       0.417000        1.0080           0
     52575 WT5      461      TIP3     H2       HT       0.417000        1.0080           0
     52576 WT5      462      TIP3     OH2      OT      -0.834000       15.9994           0
     52577 WT5      462      TIP3     H1       HT       0.417000        1.0080           0
     52578 WT5      462      TIP3     H2       HT       0.417000        1.0080           0
     52579 WT5      463      TIP3     OH2      OT      -0.834000       15.9994           0
     52580 WT5      463      TIP3     H1       HT       0.417000        1.0080           0
     52581 WT5      463      TIP3     H2       HT       0.417000        1.0080           0
     52582 WT5      464      TIP3     OH2      OT      -0.834000       15.9994           0
     52583 WT5      464      TIP3     H1       HT       0.417000        1.0080           0
     52584 WT5      464      TIP3     H2       HT       0.417000        1.0080           0
     52585 WT5      465      TIP3     OH2      OT      -0.834000       15.9994           0
     52586 WT5      465      TIP3     H1       HT       0.417000        1.0080           0
     52587 WT5      465      TIP3     H2       HT       0.417000        1.0080           0
     52588 WT5      466      TIP3     OH2      OT      -0.834000       15.9994           0
     52589 WT5      466      TIP3     H1       HT       0.417000        1.0080           0
     52590 WT5      466      TIP3     H2       HT       0.417000        1.0080           0
     52591 WT5      468      TIP3     OH2      OT      -0.834000       15.9994           0
     52592 WT5      468      TIP3     H1       HT       0.417000        1.0080           0
     52593 WT5      468      TIP3     H2       HT       0.417000        1.0080           0
     52594 WT5      469      TIP3     OH2      OT      -0.834000       15.9994           0
     52595 WT5      469      TIP3     H1       HT       0.417000        1.0080           0
     52596 WT5      469      TIP3     H2       HT       0.417000        1.0080           0
     52597 WT5      470      TIP3     OH2      OT      -0.834000       15.9994           0
     52598 WT5      470      TIP3     H1       HT       0.417000        1.0080           0
     52599 WT5      470      TIP3     H2       HT       0.417000        1.0080           0
     52600 WT5      471      TIP3     OH2      OT      -0.834000       15.9994           0
     52601 WT5      471      TIP3     H1       HT       0.417000        1.0080           0
     52602 WT5      471      TIP3     H2       HT       0.417000        1.0080           0
     52603 WT5      472      TIP3     OH2      OT      -0.834000       15.9994           0
     52604 WT5      472      TIP3     H1       HT       0.417000        1.0080           0
     52605 WT5      472      TIP3     H2       HT       0.417000        1.0080           0
     52606 WT5      476      TIP3     OH2      OT      -0.834000       15.9994           0
     52607 WT5      476      TIP3     H1       HT       0.417000        1.0080           0
     52608 WT5      476      TIP3     H2       HT       0.417000        1.0080           0
     52609 WT5      479      TIP3     OH2      OT      -0.834000       15.9994           0
     52610 WT5      479      TIP3     H1       HT       0.417000        1.0080           0
     52611 WT5      479      TIP3     H2       HT       0.417000        1.0080           0
     52612 WT5      480      TIP3     OH2      OT      -0.834000       15.9994           0
     52613 WT5      480      TIP3     H1       HT       0.417000        1.0080           0
     52614 WT5      480      TIP3     H2       HT       0.417000        1.0080           0
     52615 WT5      481      TIP3     OH2      OT      -0.834000       15.9994           0
     52616 WT5      481      TIP3     H1       HT       0.417000        1.0080           0
     52617 WT5      481      TIP3     H2       HT       0.417000        1.0080           0
     52618 WT5      482      TIP3     OH2      OT      -0.834000       15.9994           0
     52619 WT5      482      TIP3     H1       HT       0.417000        1.0080           0
     52620 WT5      482      TIP3     H2       HT       0.417000        1.0080           0
     52621 WT5      483      TIP3     OH2      OT      -0.834000       15.9994           0
     52622 WT5      483      TIP3     H1       HT       0.417000        1.0080           0
     52623 WT5      483      TIP3     H2       HT       0.417000        1.0080           0
     52624 WT5      484      TIP3     OH2      OT      -0.834000       15.9994           0
     52625 WT5      484      TIP3     H1       HT       0.417000        1.0080           0
     52626 WT5      484      TIP3     H2       HT       0.417000        1.0080           0
     52627 WT5      485      TIP3     OH2      OT      -0.834000       15.9994           0
     52628 WT5      485      TIP3     H1       HT       0.417000        1.0080           0
     52629 WT5      485      TIP3     H2       HT       0.417000        1.0080           0
     52630 WT5      486      TIP3     OH2      OT      -0.834000       15.9994           0
     52631 WT5      486      TIP3     H1       HT       0.417000        1.0080           0
     52632 WT5      486      TIP3     H2       HT       0.417000        1.0080           0
     52633 WT5      487      TIP3     OH2      OT      -0.834000       15.9994           0
     52634 WT5      487      TIP3     H1       HT       0.417000        1.0080           0
     52635 WT5      487      TIP3     H2       HT       0.417000        1.0080           0
     52636 WT5      489      TIP3     OH2      OT      -0.834000       15.9994           0
     52637 WT5      489      TIP3     H1       HT       0.417000        1.0080           0
     52638 WT5      489      TIP3     H2       HT       0.417000        1.0080           0
     52639 WT5      490      TIP3     OH2      OT      -0.834000       15.9994           0
     52640 WT5      490      TIP3     H1       HT       0.417000        1.0080           0
     52641 WT5      490      TIP3     H2       HT       0.417000        1.0080           0
     52642 WT5      491      TIP3     OH2      OT      -0.834000       15.9994           0
     52643 WT5      491      TIP3     H1       HT       0.417000        1.0080           0
     52644 WT5      491      TIP3     H2       HT       0.417000        1.0080           0
     52645 WT5      493      TIP3     OH2      OT      -0.834000       15.9994           0
     52646 WT5      493      TIP3     H1       HT       0.417000        1.0080           0
     52647 WT5      493      TIP3     H2       HT       0.417000        1.0080           0
     52648 WT5      494      TIP3     OH2      OT      -0.834000       15.9994           0
     52649 WT5      494      TIP3     H1       HT       0.417000        1.0080           0
     52650 WT5      494      TIP3     H2       HT       0.417000        1.0080           0
     52651 WT5      495      TIP3     OH2      OT      -0.834000       15.9994           0
     52652 WT5      495      TIP3     H1       HT       0.417000        1.0080           0
     52653 WT5      495      TIP3     H2       HT       0.417000        1.0080           0
     52654 WT5      496      TIP3     OH2      OT      -0.834000       15.9994           0
     52655 WT5      496      TIP3     H1       HT       0.417000        1.0080           0
     52656 WT5      496      TIP3     H2       HT       0.417000        1.0080           0
     52657 WT5      497      TIP3     OH2      OT      -0.834000       15.9994           0
     52658 WT5      497      TIP3     H1       HT       0.417000        1.0080           0
     52659 WT5      497      TIP3     H2       HT       0.417000        1.0080           0
     52660 WT5      498      TIP3     OH2      OT      -0.834000       15.9994           0
     52661 WT5      498      TIP3     H1       HT       0.417000        1.0080           0
     52662 WT5      498      TIP3     H2       HT       0.417000        1.0080           0
     52663 WT5      500      TIP3     OH2      OT      -0.834000       15.9994           0
     52664 WT5      500      TIP3     H1       HT       0.417000        1.0080           0
     52665 WT5      500      TIP3     H2       HT       0.417000        1.0080           0
     52666 WT5      501      TIP3     OH2      OT      -0.834000       15.9994           0
     52667 WT5      501      TIP3     H1       HT       0.417000        1.0080           0
     52668 WT5      501      TIP3     H2       HT       0.417000        1.0080           0
     52669 WT5      502      TIP3     OH2      OT      -0.834000       15.9994           0
     52670 WT5      502      TIP3     H1       HT       0.417000        1.0080           0
     52671 WT5      502      TIP3     H2       HT       0.417000        1.0080           0
     52672 WT5      503      TIP3     OH2      OT      -0.834000       15.9994           0
     52673 WT5      503      TIP3     H1       HT       0.417000        1.0080           0
     52674 WT5      503      TIP3     H2       HT       0.417000        1.0080           0
     52675 WT5      506      TIP3     OH2      OT      -0.834000       15.9994           0
     52676 WT5      506      TIP3     H1       HT       0.417000        1.0080           0
     52677 WT5      506      TIP3     H2       HT       0.417000        1.0080           0
     52678 WT5      507      TIP3     OH2      OT      -0.834000       15.9994           0
     52679 WT5      507      TIP3     H1       HT       0.417000        1.0080           0
     52680 WT5      507      TIP3     H2       HT       0.417000        1.0080           0
     52681 WT5      509      TIP3     OH2      OT      -0.834000       15.9994           0
     52682 WT5      509      TIP3     H1       HT       0.417000        1.0080           0
     52683 WT5      509      TIP3     H2       HT       0.417000        1.0080           0
     52684 WT5      511      TIP3     OH2      OT      -0.834000       15.9994           0
     52685 WT5      511      TIP3     H1       HT       0.417000        1.0080           0
     52686 WT5      511      TIP3     H2       HT       0.417000        1.0080           0
     52687 WT5      512      TIP3     OH2      OT      -0.834000       15.9994           0
     52688 WT5      512      TIP3     H1       HT       0.417000        1.0080           0
     52689 WT5      512      TIP3     H2       HT       0.417000        1.0080           0
     52690 WT5      514      TIP3     OH2      OT      -0.834000       15.9994           0
     52691 WT5      514      TIP3     H1       HT       0.417000        1.0080           0
     52692 WT5      514      TIP3     H2       HT       0.417000        1.0080           0
     52693 WT5      515      TIP3     OH2      OT      -0.834000       15.9994           0
     52694 WT5      515      TIP3     H1       HT       0.417000        1.0080           0
     52695 WT5      515      TIP3     H2       HT       0.417000        1.0080           0
     52696 WT5      516      TIP3     OH2      OT      -0.834000       15.9994           0
     52697 WT5      516      TIP3     H1       HT       0.417000        1.0080           0
     52698 WT5      516      TIP3     H2       HT       0.417000        1.0080           0
     52699 WT5      517      TIP3     OH2      OT      -0.834000       15.9994           0
     52700 WT5      517      TIP3     H1       HT       0.417000        1.0080           0
     52701 WT5      517      TIP3     H2       HT       0.417000        1.0080           0
     52702 WT5      518      TIP3     OH2      OT      -0.834000       15.9994           0
     52703 WT5      518      TIP3     H1       HT       0.417000        1.0080           0
     52704 WT5      518      TIP3     H2       HT       0.417000        1.0080           0
     52705 WT5      520      TIP3     OH2      OT      -0.834000       15.9994           0
     52706 WT5      520      TIP3     H1       HT       0.417000        1.0080           0
     52707 WT5      520      TIP3     H2       HT       0.417000        1.0080           0
     52708 WT5      521      TIP3     OH2      OT      -0.834000       15.9994           0
     52709 WT5      521      TIP3     H1       HT       0.417000        1.0080           0
     52710 WT5      521      TIP3     H2       HT       0.417000        1.0080           0
     52711 WT5      522      TIP3     OH2      OT      -0.834000       15.9994           0
     52712 WT5      522      TIP3     H1       HT       0.417000        1.0080           0
     52713 WT5      522      TIP3     H2       HT       0.417000        1.0080           0
     52714 WT5      523      TIP3     OH2      OT      -0.834000       15.9994           0
     52715 WT5      523      TIP3     H1       HT       0.417000        1.0080           0
     52716 WT5      523      TIP3     H2       HT       0.417000        1.0080           0
     52717 WT5      524      TIP3     OH2      OT      -0.834000       15.9994           0
     52718 WT5      524      TIP3     H1       HT       0.417000        1.0080           0
     52719 WT5      524      TIP3     H2       HT       0.417000        1.0080           0
     52720 WT5      525      TIP3     OH2      OT      -0.834000       15.9994           0
     52721 WT5      525      TIP3     H1       HT       0.417000        1.0080           0
     52722 WT5      525      TIP3     H2       HT       0.417000        1.0080           0
     52723 WT5      526      TIP3     OH2      OT      -0.834000       15.9994           0
     52724 WT5      526      TIP3     H1       HT       0.417000        1.0080           0
     52725 WT5      526      TIP3     H2       HT       0.417000        1.0080           0
     52726 WT5      527      TIP3     OH2      OT      -0.834000       15.9994           0
     52727 WT5      527      TIP3     H1       HT       0.417000        1.0080           0
     52728 WT5      527      TIP3     H2       HT       0.417000        1.0080           0
     52729 WT5      529      TIP3     OH2      OT      -0.834000       15.9994           0
     52730 WT5      529      TIP3     H1       HT       0.417000        1.0080           0
     52731 WT5      529      TIP3     H2       HT       0.417000        1.0080           0
     52732 WT5      533      TIP3     OH2      OT      -0.834000       15.9994           0
     52733 WT5      533      TIP3     H1       HT       0.417000        1.0080           0
     52734 WT5      533      TIP3     H2       HT       0.417000        1.0080           0
     52735 WT5      534      TIP3     OH2      OT      -0.834000       15.9994           0
     52736 WT5      534      TIP3     H1       HT       0.417000        1.0080           0
     52737 WT5      534      TIP3     H2       HT       0.417000        1.0080           0
     52738 WT5      535      TIP3     OH2      OT      -0.834000       15.9994           0
     52739 WT5      535      TIP3     H1       HT       0.417000        1.0080           0
     52740 WT5      535      TIP3     H2       HT       0.417000        1.0080           0
     52741 WT5      538      TIP3     OH2      OT      -0.834000       15.9994           0
     52742 WT5      538      TIP3     H1       HT       0.417000        1.0080           0
     52743 WT5      538      TIP3     H2       HT       0.417000        1.0080           0
     52744 WT5      539      TIP3     OH2      OT      -0.834000       15.9994           0
     52745 WT5      539      TIP3     H1       HT       0.417000        1.0080           0
     52746 WT5      539      TIP3     H2       HT       0.417000        1.0080           0
     52747 WT5      540      TIP3     OH2      OT      -0.834000       15.9994           0
     52748 WT5      540      TIP3     H1       HT       0.417000        1.0080           0
     52749 WT5      540      TIP3     H2       HT       0.417000        1.0080           0
     52750 WT5      541      TIP3     OH2      OT      -0.834000       15.9994           0
     52751 WT5      541      TIP3     H1       HT       0.417000        1.0080           0
     52752 WT5      541      TIP3     H2       HT       0.417000        1.0080           0
     52753 WT5      543      TIP3     OH2      OT      -0.834000       15.9994           0
     52754 WT5      543      TIP3     H1       HT       0.417000        1.0080           0
     52755 WT5      543      TIP3     H2       HT       0.417000        1.0080           0
     52756 WT5      544      TIP3     OH2      OT      -0.834000       15.9994           0
     52757 WT5      544      TIP3     H1       HT       0.417000        1.0080           0
     52758 WT5      544      TIP3     H2       HT       0.417000        1.0080           0
     52759 WT5      545      TIP3     OH2      OT      -0.834000       15.9994           0
     52760 WT5      545      TIP3     H1       HT       0.417000        1.0080           0
     52761 WT5      545      TIP3     H2       HT       0.417000        1.0080           0
     52762 WT5      548      TIP3     OH2      OT      -0.834000       15.9994           0
     52763 WT5      548      TIP3     H1       HT       0.417000        1.0080           0
     52764 WT5      548      TIP3     H2       HT       0.417000        1.0080           0
     52765 WT5      550      TIP3     OH2      OT      -0.834000       15.9994           0
     52766 WT5      550      TIP3     H1       HT       0.417000        1.0080           0
     52767 WT5      550      TIP3     H2       HT       0.417000        1.0080           0
     52768 WT5      551      TIP3     OH2      OT      -0.834000       15.9994           0
     52769 WT5      551      TIP3     H1       HT       0.417000        1.0080           0
     52770 WT5      551      TIP3     H2       HT       0.417000        1.0080           0
     52771 WT5      552      TIP3     OH2      OT      -0.834000       15.9994           0
     52772 WT5      552      TIP3     H1       HT       0.417000        1.0080           0
     52773 WT5      552      TIP3     H2       HT       0.417000        1.0080           0
     52774 WT5      553      TIP3     OH2      OT      -0.834000       15.9994           0
     52775 WT5      553      TIP3     H1       HT       0.417000        1.0080           0
     52776 WT5      553      TIP3     H2       HT       0.417000        1.0080           0
     52777 WT5      554      TIP3     OH2      OT      -0.834000       15.9994           0
     52778 WT5      554      TIP3     H1       HT       0.417000        1.0080           0
     52779 WT5      554      TIP3     H2       HT       0.417000        1.0080           0
     52780 WT5      555      TIP3     OH2      OT      -0.834000       15.9994           0
     52781 WT5      555      TIP3     H1       HT       0.417000        1.0080           0
     52782 WT5      555      TIP3     H2       HT       0.417000        1.0080           0
     52783 WT5      556      TIP3     OH2      OT      -0.834000       15.9994           0
     52784 WT5      556      TIP3     H1       HT       0.417000        1.0080           0
     52785 WT5      556      TIP3     H2       HT       0.417000        1.0080           0
     52786 WT5      558      TIP3     OH2      OT      -0.834000       15.9994           0
     52787 WT5      558      TIP3     H1       HT       0.417000        1.0080           0
     52788 WT5      558      TIP3     H2       HT       0.417000        1.0080           0
     52789 WT5      562      TIP3     OH2      OT      -0.834000       15.9994           0
     52790 WT5      562      TIP3     H1       HT       0.417000        1.0080           0
     52791 WT5      562      TIP3     H2       HT       0.417000        1.0080           0
     52792 WT5      564      TIP3     OH2      OT      -0.834000       15.9994           0
     52793 WT5      564      TIP3     H1       HT       0.417000        1.0080           0
     52794 WT5      564      TIP3     H2       HT       0.417000        1.0080           0
     52795 WT5      566      TIP3     OH2      OT      -0.834000       15.9994           0
     52796 WT5      566      TIP3     H1       HT       0.417000        1.0080           0
     52797 WT5      566      TIP3     H2       HT       0.417000        1.0080           0
     52798 WT5      568      TIP3     OH2      OT      -0.834000       15.9994           0
     52799 WT5      568      TIP3     H1       HT       0.417000        1.0080           0
     52800 WT5      568      TIP3     H2       HT       0.417000        1.0080           0
     52801 WT5      570      TIP3     OH2      OT      -0.834000       15.9994           0
     52802 WT5      570      TIP3     H1       HT       0.417000        1.0080           0
     52803 WT5      570      TIP3     H2       HT       0.417000        1.0080           0
     52804 WT5      571      TIP3     OH2      OT      -0.834000       15.9994           0
     52805 WT5      571      TIP3     H1       HT       0.417000        1.0080           0
     52806 WT5      571      TIP3     H2       HT       0.417000        1.0080           0
     52807 WT5      573      TIP3     OH2      OT      -0.834000       15.9994           0
     52808 WT5      573      TIP3     H1       HT       0.417000        1.0080           0
     52809 WT5      573      TIP3     H2       HT       0.417000        1.0080           0
     52810 WT5      575      TIP3     OH2      OT      -0.834000       15.9994           0
     52811 WT5      575      TIP3     H1       HT       0.417000        1.0080           0
     52812 WT5      575      TIP3     H2       HT       0.417000        1.0080           0
     52813 WT5      576      TIP3     OH2      OT      -0.834000       15.9994           0
     52814 WT5      576      TIP3     H1       HT       0.417000        1.0080           0
     52815 WT5      576      TIP3     H2       HT       0.417000        1.0080           0
     52816 WT5      578      TIP3     OH2      OT      -0.834000       15.9994           0
     52817 WT5      578      TIP3     H1       HT       0.417000        1.0080           0
     52818 WT5      578      TIP3     H2       HT       0.417000        1.0080           0
     52819 WT5      579      TIP3     OH2      OT      -0.834000       15.9994           0
     52820 WT5      579      TIP3     H1       HT       0.417000        1.0080           0
     52821 WT5      579      TIP3     H2       HT       0.417000        1.0080           0
     52822 WT5      580      TIP3     OH2      OT      -0.834000       15.9994           0
     52823 WT5      580      TIP3     H1       HT       0.417000        1.0080           0
     52824 WT5      580      TIP3     H2       HT       0.417000        1.0080           0
     52825 WT5      581      TIP3     OH2      OT      -0.834000       15.9994           0
     52826 WT5      581      TIP3     H1       HT       0.417000        1.0080           0
     52827 WT5      581      TIP3     H2       HT       0.417000        1.0080           0
     52828 WT5      584      TIP3     OH2      OT      -0.834000       15.9994           0
     52829 WT5      584      TIP3     H1       HT       0.417000        1.0080           0
     52830 WT5      584      TIP3     H2       HT       0.417000        1.0080           0
     52831 WT5      585      TIP3     OH2      OT      -0.834000       15.9994           0
     52832 WT5      585      TIP3     H1       HT       0.417000        1.0080           0
     52833 WT5      585      TIP3     H2       HT       0.417000        1.0080           0
     52834 WT5      586      TIP3     OH2      OT      -0.834000       15.9994           0
     52835 WT5      586      TIP3     H1       HT       0.417000        1.0080           0
     52836 WT5      586      TIP3     H2       HT       0.417000        1.0080           0
     52837 WT5      587      TIP3     OH2      OT      -0.834000       15.9994           0
     52838 WT5      587      TIP3     H1       HT       0.417000        1.0080           0
     52839 WT5      587      TIP3     H2       HT       0.417000        1.0080           0
     52840 WT5      588      TIP3     OH2      OT      -0.834000       15.9994           0
     52841 WT5      588      TIP3     H1       HT       0.417000        1.0080           0
     52842 WT5      588      TIP3     H2       HT       0.417000        1.0080           0
     52843 WT5      591      TIP3     OH2      OT      -0.834000       15.9994           0
     52844 WT5      591      TIP3     H1       HT       0.417000        1.0080           0
     52845 WT5      591      TIP3     H2       HT       0.417000        1.0080           0
     52846 WT5      592      TIP3     OH2      OT      -0.834000       15.9994           0
     52847 WT5      592      TIP3     H1       HT       0.417000        1.0080           0
     52848 WT5      592      TIP3     H2       HT       0.417000        1.0080           0
     52849 WT5      593      TIP3     OH2      OT      -0.834000       15.9994           0
     52850 WT5      593      TIP3     H1       HT       0.417000        1.0080           0
     52851 WT5      593      TIP3     H2       HT       0.417000        1.0080           0
     52852 WT5      594      TIP3     OH2      OT      -0.834000       15.9994           0
     52853 WT5      594      TIP3     H1       HT       0.417000        1.0080           0
     52854 WT5      594      TIP3     H2       HT       0.417000        1.0080           0
     52855 WT5      595      TIP3     OH2      OT      -0.834000       15.9994           0
     52856 WT5      595      TIP3     H1       HT       0.417000        1.0080           0
     52857 WT5      595      TIP3     H2       HT       0.417000        1.0080           0
     52858 WT5      598      TIP3     OH2      OT      -0.834000       15.9994           0
     52859 WT5      598      TIP3     H1       HT       0.417000        1.0080           0
     52860 WT5      598      TIP3     H2       HT       0.417000        1.0080           0
     52861 WT5      599      TIP3     OH2      OT      -0.834000       15.9994           0
     52862 WT5      599      TIP3     H1       HT       0.417000        1.0080           0
     52863 WT5      599      TIP3     H2       HT       0.417000        1.0080           0
     52864 WT5      600      TIP3     OH2      OT      -0.834000       15.9994           0
     52865 WT5      600      TIP3     H1       HT       0.417000        1.0080           0
     52866 WT5      600      TIP3     H2       HT       0.417000        1.0080           0
     52867 WT5      601      TIP3     OH2      OT      -0.834000       15.9994           0
     52868 WT5      601      TIP3     H1       HT       0.417000        1.0080           0
     52869 WT5      601      TIP3     H2       HT       0.417000        1.0080           0
     52870 WT5      602      TIP3     OH2      OT      -0.834000       15.9994           0
     52871 WT5      602      TIP3     H1       HT       0.417000        1.0080           0
     52872 WT5      602      TIP3     H2       HT       0.417000        1.0080           0
     52873 WT5      603      TIP3     OH2      OT      -0.834000       15.9994           0
     52874 WT5      603      TIP3     H1       HT       0.417000        1.0080           0
     52875 WT5      603      TIP3     H2       HT       0.417000        1.0080           0
     52876 WT5      604      TIP3     OH2      OT      -0.834000       15.9994           0
     52877 WT5      604      TIP3     H1       HT       0.417000        1.0080           0
     52878 WT5      604      TIP3     H2       HT       0.417000        1.0080           0
     52879 WT5      606      TIP3     OH2      OT      -0.834000       15.9994           0
     52880 WT5      606      TIP3     H1       HT       0.417000        1.0080           0
     52881 WT5      606      TIP3     H2       HT       0.417000        1.0080           0
     52882 WT5      607      TIP3     OH2      OT      -0.834000       15.9994           0
     52883 WT5      607      TIP3     H1       HT       0.417000        1.0080           0
     52884 WT5      607      TIP3     H2       HT       0.417000        1.0080           0
     52885 WT5      609      TIP3     OH2      OT      -0.834000       15.9994           0
     52886 WT5      609      TIP3     H1       HT       0.417000        1.0080           0
     52887 WT5      609      TIP3     H2       HT       0.417000        1.0080           0
     52888 WT5      610      TIP3     OH2      OT      -0.834000       15.9994           0
     52889 WT5      610      TIP3     H1       HT       0.417000        1.0080           0
     52890 WT5      610      TIP3     H2       HT       0.417000        1.0080           0
     52891 WT5      611      TIP3     OH2      OT      -0.834000       15.9994           0
     52892 WT5      611      TIP3     H1       HT       0.417000        1.0080           0
     52893 WT5      611      TIP3     H2       HT       0.417000        1.0080           0
     52894 WT5      612      TIP3     OH2      OT      -0.834000       15.9994           0
     52895 WT5      612      TIP3     H1       HT       0.417000        1.0080           0
     52896 WT5      612      TIP3     H2       HT       0.417000        1.0080           0
     52897 WT5      613      TIP3     OH2      OT      -0.834000       15.9994           0
     52898 WT5      613      TIP3     H1       HT       0.417000        1.0080           0
     52899 WT5      613      TIP3     H2       HT       0.417000        1.0080           0
     52900 WT5      615      TIP3     OH2      OT      -0.834000       15.9994           0
     52901 WT5      615      TIP3     H1       HT       0.417000        1.0080           0
     52902 WT5      615      TIP3     H2       HT       0.417000        1.0080           0
     52903 WT5      616      TIP3     OH2      OT      -0.834000       15.9994           0
     52904 WT5      616      TIP3     H1       HT       0.417000        1.0080           0
     52905 WT5      616      TIP3     H2       HT       0.417000        1.0080           0
     52906 WT5      618      TIP3     OH2      OT      -0.834000       15.9994           0
     52907 WT5      618      TIP3     H1       HT       0.417000        1.0080           0
     52908 WT5      618      TIP3     H2       HT       0.417000        1.0080           0
     52909 WT5      619      TIP3     OH2      OT      -0.834000       15.9994           0
     52910 WT5      619      TIP3     H1       HT       0.417000        1.0080           0
     52911 WT5      619      TIP3     H2       HT       0.417000        1.0080           0
     52912 WT5      623      TIP3     OH2      OT      -0.834000       15.9994           0
     52913 WT5      623      TIP3     H1       HT       0.417000        1.0080           0
     52914 WT5      623      TIP3     H2       HT       0.417000        1.0080           0
     52915 WT5      624      TIP3     OH2      OT      -0.834000       15.9994           0
     52916 WT5      624      TIP3     H1       HT       0.417000        1.0080           0
     52917 WT5      624      TIP3     H2       HT       0.417000        1.0080           0
     52918 WT5      626      TIP3     OH2      OT      -0.834000       15.9994           0
     52919 WT5      626      TIP3     H1       HT       0.417000        1.0080           0
     52920 WT5      626      TIP3     H2       HT       0.417000        1.0080           0
     52921 WT5      627      TIP3     OH2      OT      -0.834000       15.9994           0
     52922 WT5      627      TIP3     H1       HT       0.417000        1.0080           0
     52923 WT5      627      TIP3     H2       HT       0.417000        1.0080           0
     52924 WT5      629      TIP3     OH2      OT      -0.834000       15.9994           0
     52925 WT5      629      TIP3     H1       HT       0.417000        1.0080           0
     52926 WT5      629      TIP3     H2       HT       0.417000        1.0080           0
     52927 WT5      630      TIP3     OH2      OT      -0.834000       15.9994           0
     52928 WT5      630      TIP3     H1       HT       0.417000        1.0080           0
     52929 WT5      630      TIP3     H2       HT       0.417000        1.0080           0
     52930 WT5      632      TIP3     OH2      OT      -0.834000       15.9994           0
     52931 WT5      632      TIP3     H1       HT       0.417000        1.0080           0
     52932 WT5      632      TIP3     H2       HT       0.417000        1.0080           0
     52933 WT5      634      TIP3     OH2      OT      -0.834000       15.9994           0
     52934 WT5      634      TIP3     H1       HT       0.417000        1.0080           0
     52935 WT5      634      TIP3     H2       HT       0.417000        1.0080           0
     52936 WT5      635      TIP3     OH2      OT      -0.834000       15.9994           0
     52937 WT5      635      TIP3     H1       HT       0.417000        1.0080           0
     52938 WT5      635      TIP3     H2       HT       0.417000        1.0080           0
     52939 WT5      636      TIP3     OH2      OT      -0.834000       15.9994           0
     52940 WT5      636      TIP3     H1       HT       0.417000        1.0080           0
     52941 WT5      636      TIP3     H2       HT       0.417000        1.0080           0
     52942 WT5      637      TIP3     OH2      OT      -0.834000       15.9994           0
     52943 WT5      637      TIP3     H1       HT       0.417000        1.0080           0
     52944 WT5      637      TIP3     H2       HT       0.417000        1.0080           0
     52945 WT5      638      TIP3     OH2      OT      -0.834000       15.9994           0
     52946 WT5      638      TIP3     H1       HT       0.417000        1.0080           0
     52947 WT5      638      TIP3     H2       HT       0.417000        1.0080           0
     52948 WT5      639      TIP3     OH2      OT      -0.834000       15.9994           0
     52949 WT5      639      TIP3     H1       HT       0.417000        1.0080           0
     52950 WT5      639      TIP3     H2       HT       0.417000        1.0080           0
     52951 WT5      640      TIP3     OH2      OT      -0.834000       15.9994           0
     52952 WT5      640      TIP3     H1       HT       0.417000        1.0080           0
     52953 WT5      640      TIP3     H2       HT       0.417000        1.0080           0
     52954 WT5      642      TIP3     OH2      OT      -0.834000       15.9994           0
     52955 WT5      642      TIP3     H1       HT       0.417000        1.0080           0
     52956 WT5      642      TIP3     H2       HT       0.417000        1.0080           0
     52957 WT5      643      TIP3     OH2      OT      -0.834000       15.9994           0
     52958 WT5      643      TIP3     H1       HT       0.417000        1.0080           0
     52959 WT5      643      TIP3     H2       HT       0.417000        1.0080           0
     52960 WT5      644      TIP3     OH2      OT      -0.834000       15.9994           0
     52961 WT5      644      TIP3     H1       HT       0.417000        1.0080           0
     52962 WT5      644      TIP3     H2       HT       0.417000        1.0080           0
     52963 WT5      646      TIP3     OH2      OT      -0.834000       15.9994           0
     52964 WT5      646      TIP3     H1       HT       0.417000        1.0080           0
     52965 WT5      646      TIP3     H2       HT       0.417000        1.0080           0
     52966 WT5      649      TIP3     OH2      OT      -0.834000       15.9994           0
     52967 WT5      649      TIP3     H1       HT       0.417000        1.0080           0
     52968 WT5      649      TIP3     H2       HT       0.417000        1.0080           0
     52969 WT5      650      TIP3     OH2      OT      -0.834000       15.9994           0
     52970 WT5      650      TIP3     H1       HT       0.417000        1.0080           0
     52971 WT5      650      TIP3     H2       HT       0.417000        1.0080           0
     52972 WT5      651      TIP3     OH2      OT      -0.834000       15.9994           0
     52973 WT5      651      TIP3     H1       HT       0.417000        1.0080           0
     52974 WT5      651      TIP3     H2       HT       0.417000        1.0080           0
     52975 WT5      653      TIP3     OH2      OT      -0.834000       15.9994           0
     52976 WT5      653      TIP3     H1       HT       0.417000        1.0080           0
     52977 WT5      653      TIP3     H2       HT       0.417000        1.0080           0
     52978 WT5      657      TIP3     OH2      OT      -0.834000       15.9994           0
     52979 WT5      657      TIP3     H1       HT       0.417000        1.0080           0
     52980 WT5      657      TIP3     H2       HT       0.417000        1.0080           0
     52981 WT5      659      TIP3     OH2      OT      -0.834000       15.9994           0
     52982 WT5      659      TIP3     H1       HT       0.417000        1.0080           0
     52983 WT5      659      TIP3     H2       HT       0.417000        1.0080           0
     52984 WT5      661      TIP3     OH2      OT      -0.834000       15.9994           0
     52985 WT5      661      TIP3     H1       HT       0.417000        1.0080           0
     52986 WT5      661      TIP3     H2       HT       0.417000        1.0080           0
     52987 WT5      662      TIP3     OH2      OT      -0.834000       15.9994           0
     52988 WT5      662      TIP3     H1       HT       0.417000        1.0080           0
     52989 WT5      662      TIP3     H2       HT       0.417000        1.0080           0
     52990 WT5      666      TIP3     OH2      OT      -0.834000       15.9994           0
     52991 WT5      666      TIP3     H1       HT       0.417000        1.0080           0
     52992 WT5      666      TIP3     H2       HT       0.417000        1.0080           0
     52993 WT5      668      TIP3     OH2      OT      -0.834000       15.9994           0
     52994 WT5      668      TIP3     H1       HT       0.417000        1.0080           0
     52995 WT5      668      TIP3     H2       HT       0.417000        1.0080           0
     52996 WT5      670      TIP3     OH2      OT      -0.834000       15.9994           0
     52997 WT5      670      TIP3     H1       HT       0.417000        1.0080           0
     52998 WT5      670      TIP3     H2       HT       0.417000        1.0080           0
     52999 WT5      671      TIP3     OH2      OT      -0.834000       15.9994           0
     53000 WT5      671      TIP3     H1       HT       0.417000        1.0080           0
     53001 WT5      671      TIP3     H2       HT       0.417000        1.0080           0
     53002 WT5      673      TIP3     OH2      OT      -0.834000       15.9994           0
     53003 WT5      673      TIP3     H1       HT       0.417000        1.0080           0
     53004 WT5      673      TIP3     H2       HT       0.417000        1.0080           0
     53005 WT5      674      TIP3     OH2      OT      -0.834000       15.9994           0
     53006 WT5      674      TIP3     H1       HT       0.417000        1.0080           0
     53007 WT5      674      TIP3     H2       HT       0.417000        1.0080           0
     53008 WT5      675      TIP3     OH2      OT      -0.834000       15.9994           0
     53009 WT5      675      TIP3     H1       HT       0.417000        1.0080           0
     53010 WT5      675      TIP3     H2       HT       0.417000        1.0080           0
     53011 WT5      676      TIP3     OH2      OT      -0.834000       15.9994           0
     53012 WT5      676      TIP3     H1       HT       0.417000        1.0080           0
     53013 WT5      676      TIP3     H2       HT       0.417000        1.0080           0
     53014 WT5      677      TIP3     OH2      OT      -0.834000       15.9994           0
     53015 WT5      677      TIP3     H1       HT       0.417000        1.0080           0
     53016 WT5      677      TIP3     H2       HT       0.417000        1.0080           0
     53017 WT5      678      TIP3     OH2      OT      -0.834000       15.9994           0
     53018 WT5      678      TIP3     H1       HT       0.417000        1.0080           0
     53019 WT5      678      TIP3     H2       HT       0.417000        1.0080           0
     53020 WT5      679      TIP3     OH2      OT      -0.834000       15.9994           0
     53021 WT5      679      TIP3     H1       HT       0.417000        1.0080           0
     53022 WT5      679      TIP3     H2       HT       0.417000        1.0080           0
     53023 WT5      680      TIP3     OH2      OT      -0.834000       15.9994           0
     53024 WT5      680      TIP3     H1       HT       0.417000        1.0080           0
     53025 WT5      680      TIP3     H2       HT       0.417000        1.0080           0
     53026 WT5      682      TIP3     OH2      OT      -0.834000       15.9994           0
     53027 WT5      682      TIP3     H1       HT       0.417000        1.0080           0
     53028 WT5      682      TIP3     H2       HT       0.417000        1.0080           0
     53029 WT5      684      TIP3     OH2      OT      -0.834000       15.9994           0
     53030 WT5      684      TIP3     H1       HT       0.417000        1.0080           0
     53031 WT5      684      TIP3     H2       HT       0.417000        1.0080           0
     53032 WT5      686      TIP3     OH2      OT      -0.834000       15.9994           0
     53033 WT5      686      TIP3     H1       HT       0.417000        1.0080           0
     53034 WT5      686      TIP3     H2       HT       0.417000        1.0080           0
     53035 WT5      687      TIP3     OH2      OT      -0.834000       15.9994           0
     53036 WT5      687      TIP3     H1       HT       0.417000        1.0080           0
     53037 WT5      687      TIP3     H2       HT       0.417000        1.0080           0
     53038 WT5      688      TIP3     OH2      OT      -0.834000       15.9994           0
     53039 WT5      688      TIP3     H1       HT       0.417000        1.0080           0
     53040 WT5      688      TIP3     H2       HT       0.417000        1.0080           0
     53041 WT5      691      TIP3     OH2      OT      -0.834000       15.9994           0
     53042 WT5      691      TIP3     H1       HT       0.417000        1.0080           0
     53043 WT5      691      TIP3     H2       HT       0.417000        1.0080           0
     53044 WT5      699      TIP3     OH2      OT      -0.834000       15.9994           0
     53045 WT5      699      TIP3     H1       HT       0.417000        1.0080           0
     53046 WT5      699      TIP3     H2       HT       0.417000        1.0080           0
     53047 WT5      700      TIP3     OH2      OT      -0.834000       15.9994           0
     53048 WT5      700      TIP3     H1       HT       0.417000        1.0080           0
     53049 WT5      700      TIP3     H2       HT       0.417000        1.0080           0
     53050 WT5      701      TIP3     OH2      OT      -0.834000       15.9994           0
     53051 WT5      701      TIP3     H1       HT       0.417000        1.0080           0
     53052 WT5      701      TIP3     H2       HT       0.417000        1.0080           0
     53053 WT5      702      TIP3     OH2      OT      -0.834000       15.9994           0
     53054 WT5      702      TIP3     H1       HT       0.417000        1.0080           0
     53055 WT5      702      TIP3     H2       HT       0.417000        1.0080           0
     53056 WT5      703      TIP3     OH2      OT      -0.834000       15.9994           0
     53057 WT5      703      TIP3     H1       HT       0.417000        1.0080           0
     53058 WT5      703      TIP3     H2       HT       0.417000        1.0080           0
     53059 WT5      704      TIP3     OH2      OT      -0.834000       15.9994           0
     53060 WT5      704      TIP3     H1       HT       0.417000        1.0080           0
     53061 WT5      704      TIP3     H2       HT       0.417000        1.0080           0
     53062 WT5      706      TIP3     OH2      OT      -0.834000       15.9994           0
     53063 WT5      706      TIP3     H1       HT       0.417000        1.0080           0
     53064 WT5      706      TIP3     H2       HT       0.417000        1.0080           0
     53065 WT5      707      TIP3     OH2      OT      -0.834000       15.9994           0
     53066 WT5      707      TIP3     H1       HT       0.417000        1.0080           0
     53067 WT5      707      TIP3     H2       HT       0.417000        1.0080           0
     53068 WT5      708      TIP3     OH2      OT      -0.834000       15.9994           0
     53069 WT5      708      TIP3     H1       HT       0.417000        1.0080           0
     53070 WT5      708      TIP3     H2       HT       0.417000        1.0080           0
     53071 WT5      710      TIP3     OH2      OT      -0.834000       15.9994           0
     53072 WT5      710      TIP3     H1       HT       0.417000        1.0080           0
     53073 WT5      710      TIP3     H2       HT       0.417000        1.0080           0
     53074 WT5      711      TIP3     OH2      OT      -0.834000       15.9994           0
     53075 WT5      711      TIP3     H1       HT       0.417000        1.0080           0
     53076 WT5      711      TIP3     H2       HT       0.417000        1.0080           0
     53077 WT5      712      TIP3     OH2      OT      -0.834000       15.9994           0
     53078 WT5      712      TIP3     H1       HT       0.417000        1.0080           0
     53079 WT5      712      TIP3     H2       HT       0.417000        1.0080           0
     53080 WT5      713      TIP3     OH2      OT      -0.834000       15.9994           0
     53081 WT5      713      TIP3     H1       HT       0.417000        1.0080           0
     53082 WT5      713      TIP3     H2       HT       0.417000        1.0080           0
     53083 WT5      714      TIP3     OH2      OT      -0.834000       15.9994           0
     53084 WT5      714      TIP3     H1       HT       0.417000        1.0080           0
     53085 WT5      714      TIP3     H2       HT       0.417000        1.0080           0
     53086 WT5      715      TIP3     OH2      OT      -0.834000       15.9994           0
     53087 WT5      715      TIP3     H1       HT       0.417000        1.0080           0
     53088 WT5      715      TIP3     H2       HT       0.417000        1.0080           0
     53089 WT5      717      TIP3     OH2      OT      -0.834000       15.9994           0
     53090 WT5      717      TIP3     H1       HT       0.417000        1.0080           0
     53091 WT5      717      TIP3     H2       HT       0.417000        1.0080           0
     53092 WT5      721      TIP3     OH2      OT      -0.834000       15.9994           0
     53093 WT5      721      TIP3     H1       HT       0.417000        1.0080           0
     53094 WT5      721      TIP3     H2       HT       0.417000        1.0080           0
     53095 WT5      722      TIP3     OH2      OT      -0.834000       15.9994           0
     53096 WT5      722      TIP3     H1       HT       0.417000        1.0080           0
     53097 WT5      722      TIP3     H2       HT       0.417000        1.0080           0
     53098 WT5      725      TIP3     OH2      OT      -0.834000       15.9994           0
     53099 WT5      725      TIP3     H1       HT       0.417000        1.0080           0
     53100 WT5      725      TIP3     H2       HT       0.417000        1.0080           0
     53101 WT5      726      TIP3     OH2      OT      -0.834000       15.9994           0
     53102 WT5      726      TIP3     H1       HT       0.417000        1.0080           0
     53103 WT5      726      TIP3     H2       HT       0.417000        1.0080           0
     53104 WT5      731      TIP3     OH2      OT      -0.834000       15.9994           0
     53105 WT5      731      TIP3     H1       HT       0.417000        1.0080           0
     53106 WT5      731      TIP3     H2       HT       0.417000        1.0080           0
     53107 WT5      733      TIP3     OH2      OT      -0.834000       15.9994           0
     53108 WT5      733      TIP3     H1       HT       0.417000        1.0080           0
     53109 WT5      733      TIP3     H2       HT       0.417000        1.0080           0
     53110 WT5      734      TIP3     OH2      OT      -0.834000       15.9994           0
     53111 WT5      734      TIP3     H1       HT       0.417000        1.0080           0
     53112 WT5      734      TIP3     H2       HT       0.417000        1.0080           0
     53113 WT5      736      TIP3     OH2      OT      -0.834000       15.9994           0
     53114 WT5      736      TIP3     H1       HT       0.417000        1.0080           0
     53115 WT5      736      TIP3     H2       HT       0.417000        1.0080           0
     53116 WT5      737      TIP3     OH2      OT      -0.834000       15.9994           0
     53117 WT5      737      TIP3     H1       HT       0.417000        1.0080           0
     53118 WT5      737      TIP3     H2       HT       0.417000        1.0080           0
     53119 WT5      738      TIP3     OH2      OT      -0.834000       15.9994           0
     53120 WT5      738      TIP3     H1       HT       0.417000        1.0080           0
     53121 WT5      738      TIP3     H2       HT       0.417000        1.0080           0
     53122 WT5      740      TIP3     OH2      OT      -0.834000       15.9994           0
     53123 WT5      740      TIP3     H1       HT       0.417000        1.0080           0
     53124 WT5      740      TIP3     H2       HT       0.417000        1.0080           0
     53125 WT5      741      TIP3     OH2      OT      -0.834000       15.9994           0
     53126 WT5      741      TIP3     H1       HT       0.417000        1.0080           0
     53127 WT5      741      TIP3     H2       HT       0.417000        1.0080           0
     53128 WT5      743      TIP3     OH2      OT      -0.834000       15.9994           0
     53129 WT5      743      TIP3     H1       HT       0.417000        1.0080           0
     53130 WT5      743      TIP3     H2       HT       0.417000        1.0080           0
     53131 WT5      744      TIP3     OH2      OT      -0.834000       15.9994           0
     53132 WT5      744      TIP3     H1       HT       0.417000        1.0080           0
     53133 WT5      744      TIP3     H2       HT       0.417000        1.0080           0
     53134 WT5      745      TIP3     OH2      OT      -0.834000       15.9994           0
     53135 WT5      745      TIP3     H1       HT       0.417000        1.0080           0
     53136 WT5      745      TIP3     H2       HT       0.417000        1.0080           0
     53137 WT5      746      TIP3     OH2      OT      -0.834000       15.9994           0
     53138 WT5      746      TIP3     H1       HT       0.417000        1.0080           0
     53139 WT5      746      TIP3     H2       HT       0.417000        1.0080           0
     53140 WT5      747      TIP3     OH2      OT      -0.834000       15.9994           0
     53141 WT5      747      TIP3     H1       HT       0.417000        1.0080           0
     53142 WT5      747      TIP3     H2       HT       0.417000        1.0080           0
     53143 WT5      748      TIP3     OH2      OT      -0.834000       15.9994           0
     53144 WT5      748      TIP3     H1       HT       0.417000        1.0080           0
     53145 WT5      748      TIP3     H2       HT       0.417000        1.0080           0
     53146 WT5      749      TIP3     OH2      OT      -0.834000       15.9994           0
     53147 WT5      749      TIP3     H1       HT       0.417000        1.0080           0
     53148 WT5      749      TIP3     H2       HT       0.417000        1.0080           0
     53149 WT5      750      TIP3     OH2      OT      -0.834000       15.9994           0
     53150 WT5      750      TIP3     H1       HT       0.417000        1.0080           0
     53151 WT5      750      TIP3     H2       HT       0.417000        1.0080           0
     53152 WT5      753      TIP3     OH2      OT      -0.834000       15.9994           0
     53153 WT5      753      TIP3     H1       HT       0.417000        1.0080           0
     53154 WT5      753      TIP3     H2       HT       0.417000        1.0080           0
     53155 WT5      754      TIP3     OH2      OT      -0.834000       15.9994           0
     53156 WT5      754      TIP3     H1       HT       0.417000        1.0080           0
     53157 WT5      754      TIP3     H2       HT       0.417000        1.0080           0
     53158 WT5      755      TIP3     OH2      OT      -0.834000       15.9994           0
     53159 WT5      755      TIP3     H1       HT       0.417000        1.0080           0
     53160 WT5      755      TIP3     H2       HT       0.417000        1.0080           0
     53161 WT5      756      TIP3     OH2      OT      -0.834000       15.9994           0
     53162 WT5      756      TIP3     H1       HT       0.417000        1.0080           0
     53163 WT5      756      TIP3     H2       HT       0.417000        1.0080           0
     53164 WT5      757      TIP3     OH2      OT      -0.834000       15.9994           0
     53165 WT5      757      TIP3     H1       HT       0.417000        1.0080           0
     53166 WT5      757      TIP3     H2       HT       0.417000        1.0080           0
     53167 WT5      759      TIP3     OH2      OT      -0.834000       15.9994           0
     53168 WT5      759      TIP3     H1       HT       0.417000        1.0080           0
     53169 WT5      759      TIP3     H2       HT       0.417000        1.0080           0
     53170 WT5      761      TIP3     OH2      OT      -0.834000       15.9994           0
     53171 WT5      761      TIP3     H1       HT       0.417000        1.0080           0
     53172 WT5      761      TIP3     H2       HT       0.417000        1.0080           0
     53173 WT5      763      TIP3     OH2      OT      -0.834000       15.9994           0
     53174 WT5      763      TIP3     H1       HT       0.417000        1.0080           0
     53175 WT5      763      TIP3     H2       HT       0.417000        1.0080           0
     53176 WT5      765      TIP3     OH2      OT      -0.834000       15.9994           0
     53177 WT5      765      TIP3     H1       HT       0.417000        1.0080           0
     53178 WT5      765      TIP3     H2       HT       0.417000        1.0080           0
     53179 WT5      766      TIP3     OH2      OT      -0.834000       15.9994           0
     53180 WT5      766      TIP3     H1       HT       0.417000        1.0080           0
     53181 WT5      766      TIP3     H2       HT       0.417000        1.0080           0
     53182 WT5      767      TIP3     OH2      OT      -0.834000       15.9994           0
     53183 WT5      767      TIP3     H1       HT       0.417000        1.0080           0
     53184 WT5      767      TIP3     H2       HT       0.417000        1.0080           0
     53185 WT5      768      TIP3     OH2      OT      -0.834000       15.9994           0
     53186 WT5      768      TIP3     H1       HT       0.417000        1.0080           0
     53187 WT5      768      TIP3     H2       HT       0.417000        1.0080           0
     53188 WT5      771      TIP3     OH2      OT      -0.834000       15.9994           0
     53189 WT5      771      TIP3     H1       HT       0.417000        1.0080           0
     53190 WT5      771      TIP3     H2       HT       0.417000        1.0080           0
     53191 WT5      772      TIP3     OH2      OT      -0.834000       15.9994           0
     53192 WT5      772      TIP3     H1       HT       0.417000        1.0080           0
     53193 WT5      772      TIP3     H2       HT       0.417000        1.0080           0
     53194 WT5      773      TIP3     OH2      OT      -0.834000       15.9994           0
     53195 WT5      773      TIP3     H1       HT       0.417000        1.0080           0
     53196 WT5      773      TIP3     H2       HT       0.417000        1.0080           0
     53197 WT5      774      TIP3     OH2      OT      -0.834000       15.9994           0
     53198 WT5      774      TIP3     H1       HT       0.417000        1.0080           0
     53199 WT5      774      TIP3     H2       HT       0.417000        1.0080           0
     53200 WT5      775      TIP3     OH2      OT      -0.834000       15.9994           0
     53201 WT5      775      TIP3     H1       HT       0.417000        1.0080           0
     53202 WT5      775      TIP3     H2       HT       0.417000        1.0080           0
     53203 WT5      777      TIP3     OH2      OT      -0.834000       15.9994           0
     53204 WT5      777      TIP3     H1       HT       0.417000        1.0080           0
     53205 WT5      777      TIP3     H2       HT       0.417000        1.0080           0
     53206 WT5      778      TIP3     OH2      OT      -0.834000       15.9994           0
     53207 WT5      778      TIP3     H1       HT       0.417000        1.0080           0
     53208 WT5      778      TIP3     H2       HT       0.417000        1.0080           0
     53209 WT5      779      TIP3     OH2      OT      -0.834000       15.9994           0
     53210 WT5      779      TIP3     H1       HT       0.417000        1.0080           0
     53211 WT5      779      TIP3     H2       HT       0.417000        1.0080           0
     53212 WT5      781      TIP3     OH2      OT      -0.834000       15.9994           0
     53213 WT5      781      TIP3     H1       HT       0.417000        1.0080           0
     53214 WT5      781      TIP3     H2       HT       0.417000        1.0080           0
     53215 WT5      782      TIP3     OH2      OT      -0.834000       15.9994           0
     53216 WT5      782      TIP3     H1       HT       0.417000        1.0080           0
     53217 WT5      782      TIP3     H2       HT       0.417000        1.0080           0
     53218 WT5      783      TIP3     OH2      OT      -0.834000       15.9994           0
     53219 WT5      783      TIP3     H1       HT       0.417000        1.0080           0
     53220 WT5      783      TIP3     H2       HT       0.417000        1.0080           0
     53221 WT5      785      TIP3     OH2      OT      -0.834000       15.9994           0
     53222 WT5      785      TIP3     H1       HT       0.417000        1.0080           0
     53223 WT5      785      TIP3     H2       HT       0.417000        1.0080           0
     53224 WT5      786      TIP3     OH2      OT      -0.834000       15.9994           0
     53225 WT5      786      TIP3     H1       HT       0.417000        1.0080           0
     53226 WT5      786      TIP3     H2       HT       0.417000        1.0080           0
     53227 WT5      787      TIP3     OH2      OT      -0.834000       15.9994           0
     53228 WT5      787      TIP3     H1       HT       0.417000        1.0080           0
     53229 WT5      787      TIP3     H2       HT       0.417000        1.0080           0
     53230 WT5      788      TIP3     OH2      OT      -0.834000       15.9994           0
     53231 WT5      788      TIP3     H1       HT       0.417000        1.0080           0
     53232 WT5      788      TIP3     H2       HT       0.417000        1.0080           0
     53233 WT5      792      TIP3     OH2      OT      -0.834000       15.9994           0
     53234 WT5      792      TIP3     H1       HT       0.417000        1.0080           0
     53235 WT5      792      TIP3     H2       HT       0.417000        1.0080           0
     53236 WT5      793      TIP3     OH2      OT      -0.834000       15.9994           0
     53237 WT5      793      TIP3     H1       HT       0.417000        1.0080           0
     53238 WT5      793      TIP3     H2       HT       0.417000        1.0080           0
     53239 WT5      795      TIP3     OH2      OT      -0.834000       15.9994           0
     53240 WT5      795      TIP3     H1       HT       0.417000        1.0080           0
     53241 WT5      795      TIP3     H2       HT       0.417000        1.0080           0
     53242 WT5      796      TIP3     OH2      OT      -0.834000       15.9994           0
     53243 WT5      796      TIP3     H1       HT       0.417000        1.0080           0
     53244 WT5      796      TIP3     H2       HT       0.417000        1.0080           0
     53245 WT5      797      TIP3     OH2      OT      -0.834000       15.9994           0
     53246 WT5      797      TIP3     H1       HT       0.417000        1.0080           0
     53247 WT5      797      TIP3     H2       HT       0.417000        1.0080           0
     53248 WT5      798      TIP3     OH2      OT      -0.834000       15.9994           0
     53249 WT5      798      TIP3     H1       HT       0.417000        1.0080           0
     53250 WT5      798      TIP3     H2       HT       0.417000        1.0080           0
     53251 WT5      800      TIP3     OH2      OT      -0.834000       15.9994           0
     53252 WT5      800      TIP3     H1       HT       0.417000        1.0080           0
     53253 WT5      800      TIP3     H2       HT       0.417000        1.0080           0
     53254 WT5      801      TIP3     OH2      OT      -0.834000       15.9994           0
     53255 WT5      801      TIP3     H1       HT       0.417000        1.0080           0
     53256 WT5      801      TIP3     H2       HT       0.417000        1.0080           0
     53257 WT5      803      TIP3     OH2      OT      -0.834000       15.9994           0
     53258 WT5      803      TIP3     H1       HT       0.417000        1.0080           0
     53259 WT5      803      TIP3     H2       HT       0.417000        1.0080           0
     53260 WT5      804      TIP3     OH2      OT      -0.834000       15.9994           0
     53261 WT5      804      TIP3     H1       HT       0.417000        1.0080           0
     53262 WT5      804      TIP3     H2       HT       0.417000        1.0080           0
     53263 WT5      806      TIP3     OH2      OT      -0.834000       15.9994           0
     53264 WT5      806      TIP3     H1       HT       0.417000        1.0080           0
     53265 WT5      806      TIP3     H2       HT       0.417000        1.0080           0
     53266 WT5      807      TIP3     OH2      OT      -0.834000       15.9994           0
     53267 WT5      807      TIP3     H1       HT       0.417000        1.0080           0
     53268 WT5      807      TIP3     H2       HT       0.417000        1.0080           0
     53269 WT5      808      TIP3     OH2      OT      -0.834000       15.9994           0
     53270 WT5      808      TIP3     H1       HT       0.417000        1.0080           0
     53271 WT5      808      TIP3     H2       HT       0.417000        1.0080           0
     53272 WT5      809      TIP3     OH2      OT      -0.834000       15.9994           0
     53273 WT5      809      TIP3     H1       HT       0.417000        1.0080           0
     53274 WT5      809      TIP3     H2       HT       0.417000        1.0080           0
     53275 WT5      810      TIP3     OH2      OT      -0.834000       15.9994           0
     53276 WT5      810      TIP3     H1       HT       0.417000        1.0080           0
     53277 WT5      810      TIP3     H2       HT       0.417000        1.0080           0
     53278 WT5      811      TIP3     OH2      OT      -0.834000       15.9994           0
     53279 WT5      811      TIP3     H1       HT       0.417000        1.0080           0
     53280 WT5      811      TIP3     H2       HT       0.417000        1.0080           0
     53281 WT5      812      TIP3     OH2      OT      -0.834000       15.9994           0
     53282 WT5      812      TIP3     H1       HT       0.417000        1.0080           0
     53283 WT5      812      TIP3     H2       HT       0.417000        1.0080           0
     53284 WT5      813      TIP3     OH2      OT      -0.834000       15.9994           0
     53285 WT5      813      TIP3     H1       HT       0.417000        1.0080           0
     53286 WT5      813      TIP3     H2       HT       0.417000        1.0080           0
     53287 WT5      814      TIP3     OH2      OT      -0.834000       15.9994           0
     53288 WT5      814      TIP3     H1       HT       0.417000        1.0080           0
     53289 WT5      814      TIP3     H2       HT       0.417000        1.0080           0
     53290 WT5      815      TIP3     OH2      OT      -0.834000       15.9994           0
     53291 WT5      815      TIP3     H1       HT       0.417000        1.0080           0
     53292 WT5      815      TIP3     H2       HT       0.417000        1.0080           0
     53293 WT5      818      TIP3     OH2      OT      -0.834000       15.9994           0
     53294 WT5      818      TIP3     H1       HT       0.417000        1.0080           0
     53295 WT5      818      TIP3     H2       HT       0.417000        1.0080           0
     53296 WT5      819      TIP3     OH2      OT      -0.834000       15.9994           0
     53297 WT5      819      TIP3     H1       HT       0.417000        1.0080           0
     53298 WT5      819      TIP3     H2       HT       0.417000        1.0080           0
     53299 WT5      820      TIP3     OH2      OT      -0.834000       15.9994           0
     53300 WT5      820      TIP3     H1       HT       0.417000        1.0080           0
     53301 WT5      820      TIP3     H2       HT       0.417000        1.0080           0
     53302 WT5      821      TIP3     OH2      OT      -0.834000       15.9994           0
     53303 WT5      821      TIP3     H1       HT       0.417000        1.0080           0
     53304 WT5      821      TIP3     H2       HT       0.417000        1.0080           0
     53305 WT5      822      TIP3     OH2      OT      -0.834000       15.9994           0
     53306 WT5      822      TIP3     H1       HT       0.417000        1.0080           0
     53307 WT5      822      TIP3     H2       HT       0.417000        1.0080           0
     53308 WT5      824      TIP3     OH2      OT      -0.834000       15.9994           0
     53309 WT5      824      TIP3     H1       HT       0.417000        1.0080           0
     53310 WT5      824      TIP3     H2       HT       0.417000        1.0080           0
     53311 WT5      827      TIP3     OH2      OT      -0.834000       15.9994           0
     53312 WT5      827      TIP3     H1       HT       0.417000        1.0080           0
     53313 WT5      827      TIP3     H2       HT       0.417000        1.0080           0
     53314 WT5      828      TIP3     OH2      OT      -0.834000       15.9994           0
     53315 WT5      828      TIP3     H1       HT       0.417000        1.0080           0
     53316 WT5      828      TIP3     H2       HT       0.417000        1.0080           0
     53317 WT5      829      TIP3     OH2      OT      -0.834000       15.9994           0
     53318 WT5      829      TIP3     H1       HT       0.417000        1.0080           0
     53319 WT5      829      TIP3     H2       HT       0.417000        1.0080           0
     53320 WT5      830      TIP3     OH2      OT      -0.834000       15.9994           0
     53321 WT5      830      TIP3     H1       HT       0.417000        1.0080           0
     53322 WT5      830      TIP3     H2       HT       0.417000        1.0080           0
     53323 WT5      831      TIP3     OH2      OT      -0.834000       15.9994           0
     53324 WT5      831      TIP3     H1       HT       0.417000        1.0080           0
     53325 WT5      831      TIP3     H2       HT       0.417000        1.0080           0
     53326 WT5      832      TIP3     OH2      OT      -0.834000       15.9994           0
     53327 WT5      832      TIP3     H1       HT       0.417000        1.0080           0
     53328 WT5      832      TIP3     H2       HT       0.417000        1.0080           0
     53329 WT5      833      TIP3     OH2      OT      -0.834000       15.9994           0
     53330 WT5      833      TIP3     H1       HT       0.417000        1.0080           0
     53331 WT5      833      TIP3     H2       HT       0.417000        1.0080           0
     53332 WT5      834      TIP3     OH2      OT      -0.834000       15.9994           0
     53333 WT5      834      TIP3     H1       HT       0.417000        1.0080           0
     53334 WT5      834      TIP3     H2       HT       0.417000        1.0080           0
     53335 WT5      835      TIP3     OH2      OT      -0.834000       15.9994           0
     53336 WT5      835      TIP3     H1       HT       0.417000        1.0080           0
     53337 WT5      835      TIP3     H2       HT       0.417000        1.0080           0
     53338 WT5      836      TIP3     OH2      OT      -0.834000       15.9994           0
     53339 WT5      836      TIP3     H1       HT       0.417000        1.0080           0
     53340 WT5      836      TIP3     H2       HT       0.417000        1.0080           0
     53341 WT5      839      TIP3     OH2      OT      -0.834000       15.9994           0
     53342 WT5      839      TIP3     H1       HT       0.417000        1.0080           0
     53343 WT5      839      TIP3     H2       HT       0.417000        1.0080           0
     53344 WT5      840      TIP3     OH2      OT      -0.834000       15.9994           0
     53345 WT5      840      TIP3     H1       HT       0.417000        1.0080           0
     53346 WT5      840      TIP3     H2       HT       0.417000        1.0080           0
     53347 WT5      842      TIP3     OH2      OT      -0.834000       15.9994           0
     53348 WT5      842      TIP3     H1       HT       0.417000        1.0080           0
     53349 WT5      842      TIP3     H2       HT       0.417000        1.0080           0
     53350 WT5      843      TIP3     OH2      OT      -0.834000       15.9994           0
     53351 WT5      843      TIP3     H1       HT       0.417000        1.0080           0
     53352 WT5      843      TIP3     H2       HT       0.417000        1.0080           0
     53353 WT5      846      TIP3     OH2      OT      -0.834000       15.9994           0
     53354 WT5      846      TIP3     H1       HT       0.417000        1.0080           0
     53355 WT5      846      TIP3     H2       HT       0.417000        1.0080           0
     53356 WT5      847      TIP3     OH2      OT      -0.834000       15.9994           0
     53357 WT5      847      TIP3     H1       HT       0.417000        1.0080           0
     53358 WT5      847      TIP3     H2       HT       0.417000        1.0080           0
     53359 WT5      849      TIP3     OH2      OT      -0.834000       15.9994           0
     53360 WT5      849      TIP3     H1       HT       0.417000        1.0080           0
     53361 WT5      849      TIP3     H2       HT       0.417000        1.0080           0
     53362 WT5      850      TIP3     OH2      OT      -0.834000       15.9994           0
     53363 WT5      850      TIP3     H1       HT       0.417000        1.0080           0
     53364 WT5      850      TIP3     H2       HT       0.417000        1.0080           0
     53365 WT5      851      TIP3     OH2      OT      -0.834000       15.9994           0
     53366 WT5      851      TIP3     H1       HT       0.417000        1.0080           0
     53367 WT5      851      TIP3     H2       HT       0.417000        1.0080           0
     53368 WT5      852      TIP3     OH2      OT      -0.834000       15.9994           0
     53369 WT5      852      TIP3     H1       HT       0.417000        1.0080           0
     53370 WT5      852      TIP3     H2       HT       0.417000        1.0080           0
     53371 WT5      854      TIP3     OH2      OT      -0.834000       15.9994           0
     53372 WT5      854      TIP3     H1       HT       0.417000        1.0080           0
     53373 WT5      854      TIP3     H2       HT       0.417000        1.0080           0
     53374 WT5      855      TIP3     OH2      OT      -0.834000       15.9994           0
     53375 WT5      855      TIP3     H1       HT       0.417000        1.0080           0
     53376 WT5      855      TIP3     H2       HT       0.417000        1.0080           0
     53377 WT5      857      TIP3     OH2      OT      -0.834000       15.9994           0
     53378 WT5      857      TIP3     H1       HT       0.417000        1.0080           0
     53379 WT5      857      TIP3     H2       HT       0.417000        1.0080           0
     53380 WT5      859      TIP3     OH2      OT      -0.834000       15.9994           0
     53381 WT5      859      TIP3     H1       HT       0.417000        1.0080           0
     53382 WT5      859      TIP3     H2       HT       0.417000        1.0080           0
     53383 WT5      860      TIP3     OH2      OT      -0.834000       15.9994           0
     53384 WT5      860      TIP3     H1       HT       0.417000        1.0080           0
     53385 WT5      860      TIP3     H2       HT       0.417000        1.0080           0
     53386 WT5      861      TIP3     OH2      OT      -0.834000       15.9994           0
     53387 WT5      861      TIP3     H1       HT       0.417000        1.0080           0
     53388 WT5      861      TIP3     H2       HT       0.417000        1.0080           0
     53389 WT5      862      TIP3     OH2      OT      -0.834000       15.9994           0
     53390 WT5      862      TIP3     H1       HT       0.417000        1.0080           0
     53391 WT5      862      TIP3     H2       HT       0.417000        1.0080           0
     53392 WT5      864      TIP3     OH2      OT      -0.834000       15.9994           0
     53393 WT5      864      TIP3     H1       HT       0.417000        1.0080           0
     53394 WT5      864      TIP3     H2       HT       0.417000        1.0080           0
     53395 WT5      865      TIP3     OH2      OT      -0.834000       15.9994           0
     53396 WT5      865      TIP3     H1       HT       0.417000        1.0080           0
     53397 WT5      865      TIP3     H2       HT       0.417000        1.0080           0
     53398 WT5      867      TIP3     OH2      OT      -0.834000       15.9994           0
     53399 WT5      867      TIP3     H1       HT       0.417000        1.0080           0
     53400 WT5      867      TIP3     H2       HT       0.417000        1.0080           0
     53401 WT5      868      TIP3     OH2      OT      -0.834000       15.9994           0
     53402 WT5      868      TIP3     H1       HT       0.417000        1.0080           0
     53403 WT5      868      TIP3     H2       HT       0.417000        1.0080           0
     53404 WT5      869      TIP3     OH2      OT      -0.834000       15.9994           0
     53405 WT5      869      TIP3     H1       HT       0.417000        1.0080           0
     53406 WT5      869      TIP3     H2       HT       0.417000        1.0080           0
     53407 WT5      870      TIP3     OH2      OT      -0.834000       15.9994           0
     53408 WT5      870      TIP3     H1       HT       0.417000        1.0080           0
     53409 WT5      870      TIP3     H2       HT       0.417000        1.0080           0
     53410 WT5      873      TIP3     OH2      OT      -0.834000       15.9994           0
     53411 WT5      873      TIP3     H1       HT       0.417000        1.0080           0
     53412 WT5      873      TIP3     H2       HT       0.417000        1.0080           0
     53413 WT5      875      TIP3     OH2      OT      -0.834000       15.9994           0
     53414 WT5      875      TIP3     H1       HT       0.417000        1.0080           0
     53415 WT5      875      TIP3     H2       HT       0.417000        1.0080           0
     53416 WT5      876      TIP3     OH2      OT      -0.834000       15.9994           0
     53417 WT5      876      TIP3     H1       HT       0.417000        1.0080           0
     53418 WT5      876      TIP3     H2       HT       0.417000        1.0080           0
     53419 WT5      878      TIP3     OH2      OT      -0.834000       15.9994           0
     53420 WT5      878      TIP3     H1       HT       0.417000        1.0080           0
     53421 WT5      878      TIP3     H2       HT       0.417000        1.0080           0
     53422 WT5      880      TIP3     OH2      OT      -0.834000       15.9994           0
     53423 WT5      880      TIP3     H1       HT       0.417000        1.0080           0
     53424 WT5      880      TIP3     H2       HT       0.417000        1.0080           0
     53425 WT5      883      TIP3     OH2      OT      -0.834000       15.9994           0
     53426 WT5      883      TIP3     H1       HT       0.417000        1.0080           0
     53427 WT5      883      TIP3     H2       HT       0.417000        1.0080           0
     53428 WT5      884      TIP3     OH2      OT      -0.834000       15.9994           0
     53429 WT5      884      TIP3     H1       HT       0.417000        1.0080           0
     53430 WT5      884      TIP3     H2       HT       0.417000        1.0080           0
     53431 WT5      885      TIP3     OH2      OT      -0.834000       15.9994           0
     53432 WT5      885      TIP3     H1       HT       0.417000        1.0080           0
     53433 WT5      885      TIP3     H2       HT       0.417000        1.0080           0
     53434 WT5      886      TIP3     OH2      OT      -0.834000       15.9994           0
     53435 WT5      886      TIP3     H1       HT       0.417000        1.0080           0
     53436 WT5      886      TIP3     H2       HT       0.417000        1.0080           0
     53437 WT5      889      TIP3     OH2      OT      -0.834000       15.9994           0
     53438 WT5      889      TIP3     H1       HT       0.417000        1.0080           0
     53439 WT5      889      TIP3     H2       HT       0.417000        1.0080           0
     53440 WT5      891      TIP3     OH2      OT      -0.834000       15.9994           0
     53441 WT5      891      TIP3     H1       HT       0.417000        1.0080           0
     53442 WT5      891      TIP3     H2       HT       0.417000        1.0080           0
     53443 WT5      892      TIP3     OH2      OT      -0.834000       15.9994           0
     53444 WT5      892      TIP3     H1       HT       0.417000        1.0080           0
     53445 WT5      892      TIP3     H2       HT       0.417000        1.0080           0
     53446 WT5      894      TIP3     OH2      OT      -0.834000       15.9994           0
     53447 WT5      894      TIP3     H1       HT       0.417000        1.0080           0
     53448 WT5      894      TIP3     H2       HT       0.417000        1.0080           0
     53449 WT5      895      TIP3     OH2      OT      -0.834000       15.9994           0
     53450 WT5      895      TIP3     H1       HT       0.417000        1.0080           0
     53451 WT5      895      TIP3     H2       HT       0.417000        1.0080           0
     53452 WT5      896      TIP3     OH2      OT      -0.834000       15.9994           0
     53453 WT5      896      TIP3     H1       HT       0.417000        1.0080           0
     53454 WT5      896      TIP3     H2       HT       0.417000        1.0080           0
     53455 WT5      897      TIP3     OH2      OT      -0.834000       15.9994           0
     53456 WT5      897      TIP3     H1       HT       0.417000        1.0080           0
     53457 WT5      897      TIP3     H2       HT       0.417000        1.0080           0
     53458 WT5      898      TIP3     OH2      OT      -0.834000       15.9994           0
     53459 WT5      898      TIP3     H1       HT       0.417000        1.0080           0
     53460 WT5      898      TIP3     H2       HT       0.417000        1.0080           0
     53461 WT5      899      TIP3     OH2      OT      -0.834000       15.9994           0
     53462 WT5      899      TIP3     H1       HT       0.417000        1.0080           0
     53463 WT5      899      TIP3     H2       HT       0.417000        1.0080           0
     53464 WT5      900      TIP3     OH2      OT      -0.834000       15.9994           0
     53465 WT5      900      TIP3     H1       HT       0.417000        1.0080           0
     53466 WT5      900      TIP3     H2       HT       0.417000        1.0080           0
     53467 WT5      901      TIP3     OH2      OT      -0.834000       15.9994           0
     53468 WT5      901      TIP3     H1       HT       0.417000        1.0080           0
     53469 WT5      901      TIP3     H2       HT       0.417000        1.0080           0
     53470 WT5      902      TIP3     OH2      OT      -0.834000       15.9994           0
     53471 WT5      902      TIP3     H1       HT       0.417000        1.0080           0
     53472 WT5      902      TIP3     H2       HT       0.417000        1.0080           0
     53473 WT5      903      TIP3     OH2      OT      -0.834000       15.9994           0
     53474 WT5      903      TIP3     H1       HT       0.417000        1.0080           0
     53475 WT5      903      TIP3     H2       HT       0.417000        1.0080           0
     53476 WT5      904      TIP3     OH2      OT      -0.834000       15.9994           0
     53477 WT5      904      TIP3     H1       HT       0.417000        1.0080           0
     53478 WT5      904      TIP3     H2       HT       0.417000        1.0080           0
     53479 WT5      905      TIP3     OH2      OT      -0.834000       15.9994           0
     53480 WT5      905      TIP3     H1       HT       0.417000        1.0080           0
     53481 WT5      905      TIP3     H2       HT       0.417000        1.0080           0
     53482 WT5      906      TIP3     OH2      OT      -0.834000       15.9994           0
     53483 WT5      906      TIP3     H1       HT       0.417000        1.0080           0
     53484 WT5      906      TIP3     H2       HT       0.417000        1.0080           0
     53485 WT5      907      TIP3     OH2      OT      -0.834000       15.9994           0
     53486 WT5      907      TIP3     H1       HT       0.417000        1.0080           0
     53487 WT5      907      TIP3     H2       HT       0.417000        1.0080           0
     53488 WT5      908      TIP3     OH2      OT      -0.834000       15.9994           0
     53489 WT5      908      TIP3     H1       HT       0.417000        1.0080           0
     53490 WT5      908      TIP3     H2       HT       0.417000        1.0080           0
     53491 WT5      909      TIP3     OH2      OT      -0.834000       15.9994           0
     53492 WT5      909      TIP3     H1       HT       0.417000        1.0080           0
     53493 WT5      909      TIP3     H2       HT       0.417000        1.0080           0
     53494 WT5      910      TIP3     OH2      OT      -0.834000       15.9994           0
     53495 WT5      910      TIP3     H1       HT       0.417000        1.0080           0
     53496 WT5      910      TIP3     H2       HT       0.417000        1.0080           0
     53497 WT5      911      TIP3     OH2      OT      -0.834000       15.9994           0
     53498 WT5      911      TIP3     H1       HT       0.417000        1.0080           0
     53499 WT5      911      TIP3     H2       HT       0.417000        1.0080           0
     53500 WT5      912      TIP3     OH2      OT      -0.834000       15.9994           0
     53501 WT5      912      TIP3     H1       HT       0.417000        1.0080           0
     53502 WT5      912      TIP3     H2       HT       0.417000        1.0080           0
     53503 WT5      913      TIP3     OH2      OT      -0.834000       15.9994           0
     53504 WT5      913      TIP3     H1       HT       0.417000        1.0080           0
     53505 WT5      913      TIP3     H2       HT       0.417000        1.0080           0
     53506 WT5      914      TIP3     OH2      OT      -0.834000       15.9994           0
     53507 WT5      914      TIP3     H1       HT       0.417000        1.0080           0
     53508 WT5      914      TIP3     H2       HT       0.417000        1.0080           0
     53509 WT5      915      TIP3     OH2      OT      -0.834000       15.9994           0
     53510 WT5      915      TIP3     H1       HT       0.417000        1.0080           0
     53511 WT5      915      TIP3     H2       HT       0.417000        1.0080           0
     53512 WT5      916      TIP3     OH2      OT      -0.834000       15.9994           0
     53513 WT5      916      TIP3     H1       HT       0.417000        1.0080           0
     53514 WT5      916      TIP3     H2       HT       0.417000        1.0080           0
     53515 WT5      917      TIP3     OH2      OT      -0.834000       15.9994           0
     53516 WT5      917      TIP3     H1       HT       0.417000        1.0080           0
     53517 WT5      917      TIP3     H2       HT       0.417000        1.0080           0
     53518 WT5      919      TIP3     OH2      OT      -0.834000       15.9994           0
     53519 WT5      919      TIP3     H1       HT       0.417000        1.0080           0
     53520 WT5      919      TIP3     H2       HT       0.417000        1.0080           0
     53521 WT5      920      TIP3     OH2      OT      -0.834000       15.9994           0
     53522 WT5      920      TIP3     H1       HT       0.417000        1.0080           0
     53523 WT5      920      TIP3     H2       HT       0.417000        1.0080           0
     53524 WT5      921      TIP3     OH2      OT      -0.834000       15.9994           0
     53525 WT5      921      TIP3     H1       HT       0.417000        1.0080           0
     53526 WT5      921      TIP3     H2       HT       0.417000        1.0080           0
     53527 WT5      922      TIP3     OH2      OT      -0.834000       15.9994           0
     53528 WT5      922      TIP3     H1       HT       0.417000        1.0080           0
     53529 WT5      922      TIP3     H2       HT       0.417000        1.0080           0
     53530 WT5      923      TIP3     OH2      OT      -0.834000       15.9994           0
     53531 WT5      923      TIP3     H1       HT       0.417000        1.0080           0
     53532 WT5      923      TIP3     H2       HT       0.417000        1.0080           0
     53533 WT5      924      TIP3     OH2      OT      -0.834000       15.9994           0
     53534 WT5      924      TIP3     H1       HT       0.417000        1.0080           0
     53535 WT5      924      TIP3     H2       HT       0.417000        1.0080           0
     53536 WT5      925      TIP3     OH2      OT      -0.834000       15.9994           0
     53537 WT5      925      TIP3     H1       HT       0.417000        1.0080           0
     53538 WT5      925      TIP3     H2       HT       0.417000        1.0080           0
     53539 WT5      926      TIP3     OH2      OT      -0.834000       15.9994           0
     53540 WT5      926      TIP3     H1       HT       0.417000        1.0080           0
     53541 WT5      926      TIP3     H2       HT       0.417000        1.0080           0
     53542 WT5      927      TIP3     OH2      OT      -0.834000       15.9994           0
     53543 WT5      927      TIP3     H1       HT       0.417000        1.0080           0
     53544 WT5      927      TIP3     H2       HT       0.417000        1.0080           0
     53545 WT5      928      TIP3     OH2      OT      -0.834000       15.9994           0
     53546 WT5      928      TIP3     H1       HT       0.417000        1.0080           0
     53547 WT5      928      TIP3     H2       HT       0.417000        1.0080           0
     53548 WT5      929      TIP3     OH2      OT      -0.834000       15.9994           0
     53549 WT5      929      TIP3     H1       HT       0.417000        1.0080           0
     53550 WT5      929      TIP3     H2       HT       0.417000        1.0080           0
     53551 WT5      930      TIP3     OH2      OT      -0.834000       15.9994           0
     53552 WT5      930      TIP3     H1       HT       0.417000        1.0080           0
     53553 WT5      930      TIP3     H2       HT       0.417000        1.0080           0
     53554 WT5      931      TIP3     OH2      OT      -0.834000       15.9994           0
     53555 WT5      931      TIP3     H1       HT       0.417000        1.0080           0
     53556 WT5      931      TIP3     H2       HT       0.417000        1.0080           0
     53557 WT5      932      TIP3     OH2      OT      -0.834000       15.9994           0
     53558 WT5      932      TIP3     H1       HT       0.417000        1.0080           0
     53559 WT5      932      TIP3     H2       HT       0.417000        1.0080           0
     53560 WT5      933      TIP3     OH2      OT      -0.834000       15.9994           0
     53561 WT5      933      TIP3     H1       HT       0.417000        1.0080           0
     53562 WT5      933      TIP3     H2       HT       0.417000        1.0080           0
     53563 WT5      934      TIP3     OH2      OT      -0.834000       15.9994           0
     53564 WT5      934      TIP3     H1       HT       0.417000        1.0080           0
     53565 WT5      934      TIP3     H2       HT       0.417000        1.0080           0
     53566 WT5      935      TIP3     OH2      OT      -0.834000       15.9994           0
     53567 WT5      935      TIP3     H1       HT       0.417000        1.0080           0
     53568 WT5      935      TIP3     H2       HT       0.417000        1.0080           0
     53569 WT5      936      TIP3     OH2      OT      -0.834000       15.9994           0
     53570 WT5      936      TIP3     H1       HT       0.417000        1.0080           0
     53571 WT5      936      TIP3     H2       HT       0.417000        1.0080           0
     53572 WT5      937      TIP3     OH2      OT      -0.834000       15.9994           0
     53573 WT5      937      TIP3     H1       HT       0.417000        1.0080           0
     53574 WT5      937      TIP3     H2       HT       0.417000        1.0080           0
     53575 WT5      940      TIP3     OH2      OT      -0.834000       15.9994           0
     53576 WT5      940      TIP3     H1       HT       0.417000        1.0080           0
     53577 WT5      940      TIP3     H2       HT       0.417000        1.0080           0
     53578 WT5      941      TIP3     OH2      OT      -0.834000       15.9994           0
     53579 WT5      941      TIP3     H1       HT       0.417000        1.0080           0
     53580 WT5      941      TIP3     H2       HT       0.417000        1.0080           0
     53581 WT5      942      TIP3     OH2      OT      -0.834000       15.9994           0
     53582 WT5      942      TIP3     H1       HT       0.417000        1.0080           0
     53583 WT5      942      TIP3     H2       HT       0.417000        1.0080           0
     53584 WT5      943      TIP3     OH2      OT      -0.834000       15.9994           0
     53585 WT5      943      TIP3     H1       HT       0.417000        1.0080           0
     53586 WT5      943      TIP3     H2       HT       0.417000        1.0080           0
     53587 WT5      944      TIP3     OH2      OT      -0.834000       15.9994           0
     53588 WT5      944      TIP3     H1       HT       0.417000        1.0080           0
     53589 WT5      944      TIP3     H2       HT       0.417000        1.0080           0
     53590 WT5      946      TIP3     OH2      OT      -0.834000       15.9994           0
     53591 WT5      946      TIP3     H1       HT       0.417000        1.0080           0
     53592 WT5      946      TIP3     H2       HT       0.417000        1.0080           0
     53593 WT5      947      TIP3     OH2      OT      -0.834000       15.9994           0
     53594 WT5      947      TIP3     H1       HT       0.417000        1.0080           0
     53595 WT5      947      TIP3     H2       HT       0.417000        1.0080           0
     53596 WT5      948      TIP3     OH2      OT      -0.834000       15.9994           0
     53597 WT5      948      TIP3     H1       HT       0.417000        1.0080           0
     53598 WT5      948      TIP3     H2       HT       0.417000        1.0080           0
     53599 WT5      949      TIP3     OH2      OT      -0.834000       15.9994           0
     53600 WT5      949      TIP3     H1       HT       0.417000        1.0080           0
     53601 WT5      949      TIP3     H2       HT       0.417000        1.0080           0
     53602 WT5      950      TIP3     OH2      OT      -0.834000       15.9994           0
     53603 WT5      950      TIP3     H1       HT       0.417000        1.0080           0
     53604 WT5      950      TIP3     H2       HT       0.417000        1.0080           0
     53605 WT5      951      TIP3     OH2      OT      -0.834000       15.9994           0
     53606 WT5      951      TIP3     H1       HT       0.417000        1.0080           0
     53607 WT5      951      TIP3     H2       HT       0.417000        1.0080           0
     53608 WT5      952      TIP3     OH2      OT      -0.834000       15.9994           0
     53609 WT5      952      TIP3     H1       HT       0.417000        1.0080           0
     53610 WT5      952      TIP3     H2       HT       0.417000        1.0080           0
     53611 WT5      953      TIP3     OH2      OT      -0.834000       15.9994           0
     53612 WT5      953      TIP3     H1       HT       0.417000        1.0080           0
     53613 WT5      953      TIP3     H2       HT       0.417000        1.0080           0
     53614 WT5      954      TIP3     OH2      OT      -0.834000       15.9994           0
     53615 WT5      954      TIP3     H1       HT       0.417000        1.0080           0
     53616 WT5      954      TIP3     H2       HT       0.417000        1.0080           0
     53617 WT5      955      TIP3     OH2      OT      -0.834000       15.9994           0
     53618 WT5      955      TIP3     H1       HT       0.417000        1.0080           0
     53619 WT5      955      TIP3     H2       HT       0.417000        1.0080           0
     53620 WT5      957      TIP3     OH2      OT      -0.834000       15.9994           0
     53621 WT5      957      TIP3     H1       HT       0.417000        1.0080           0
     53622 WT5      957      TIP3     H2       HT       0.417000        1.0080           0
     53623 WT5      958      TIP3     OH2      OT      -0.834000       15.9994           0
     53624 WT5      958      TIP3     H1       HT       0.417000        1.0080           0
     53625 WT5      958      TIP3     H2       HT       0.417000        1.0080           0
     53626 WT5      959      TIP3     OH2      OT      -0.834000       15.9994           0
     53627 WT5      959      TIP3     H1       HT       0.417000        1.0080           0
     53628 WT5      959      TIP3     H2       HT       0.417000        1.0080           0
     53629 WT5      960      TIP3     OH2      OT      -0.834000       15.9994           0
     53630 WT5      960      TIP3     H1       HT       0.417000        1.0080           0
     53631 WT5      960      TIP3     H2       HT       0.417000        1.0080           0
     53632 WT5      961      TIP3     OH2      OT      -0.834000       15.9994           0
     53633 WT5      961      TIP3     H1       HT       0.417000        1.0080           0
     53634 WT5      961      TIP3     H2       HT       0.417000        1.0080           0
     53635 WT5      962      TIP3     OH2      OT      -0.834000       15.9994           0
     53636 WT5      962      TIP3     H1       HT       0.417000        1.0080           0
     53637 WT5      962      TIP3     H2       HT       0.417000        1.0080           0
     53638 WT5      963      TIP3     OH2      OT      -0.834000       15.9994           0
     53639 WT5      963      TIP3     H1       HT       0.417000        1.0080           0
     53640 WT5      963      TIP3     H2       HT       0.417000        1.0080           0
     53641 WT5      964      TIP3     OH2      OT      -0.834000       15.9994           0
     53642 WT5      964      TIP3     H1       HT       0.417000        1.0080           0
     53643 WT5      964      TIP3     H2       HT       0.417000        1.0080           0
     53644 WT5      965      TIP3     OH2      OT      -0.834000       15.9994           0
     53645 WT5      965      TIP3     H1       HT       0.417000        1.0080           0
     53646 WT5      965      TIP3     H2       HT       0.417000        1.0080           0
     53647 WT5      966      TIP3     OH2      OT      -0.834000       15.9994           0
     53648 WT5      966      TIP3     H1       HT       0.417000        1.0080           0
     53649 WT5      966      TIP3     H2       HT       0.417000        1.0080           0
     53650 WT5      968      TIP3     OH2      OT      -0.834000       15.9994           0
     53651 WT5      968      TIP3     H1       HT       0.417000        1.0080           0
     53652 WT5      968      TIP3     H2       HT       0.417000        1.0080           0
     53653 WT5      969      TIP3     OH2      OT      -0.834000       15.9994           0
     53654 WT5      969      TIP3     H1       HT       0.417000        1.0080           0
     53655 WT5      969      TIP3     H2       HT       0.417000        1.0080           0
     53656 WT5      970      TIP3     OH2      OT      -0.834000       15.9994           0
     53657 WT5      970      TIP3     H1       HT       0.417000        1.0080           0
     53658 WT5      970      TIP3     H2       HT       0.417000        1.0080           0
     53659 WT5      972      TIP3     OH2      OT      -0.834000       15.9994           0
     53660 WT5      972      TIP3     H1       HT       0.417000        1.0080           0
     53661 WT5      972      TIP3     H2       HT       0.417000        1.0080           0
     53662 WT5      973      TIP3     OH2      OT      -0.834000       15.9994           0
     53663 WT5      973      TIP3     H1       HT       0.417000        1.0080           0
     53664 WT5      973      TIP3     H2       HT       0.417000        1.0080           0
     53665 WT5      974      TIP3     OH2      OT      -0.834000       15.9994           0
     53666 WT5      974      TIP3     H1       HT       0.417000        1.0080           0
     53667 WT5      974      TIP3     H2       HT       0.417000        1.0080           0
     53668 WT5      975      TIP3     OH2      OT      -0.834000       15.9994           0
     53669 WT5      975      TIP3     H1       HT       0.417000        1.0080           0
     53670 WT5      975      TIP3     H2       HT       0.417000        1.0080           0
     53671 WT5      977      TIP3     OH2      OT      -0.834000       15.9994           0
     53672 WT5      977      TIP3     H1       HT       0.417000        1.0080           0
     53673 WT5      977      TIP3     H2       HT       0.417000        1.0080           0
     53674 WT5      978      TIP3     OH2      OT      -0.834000       15.9994           0
     53675 WT5      978      TIP3     H1       HT       0.417000        1.0080           0
     53676 WT5      978      TIP3     H2       HT       0.417000        1.0080           0
     53677 WT5      980      TIP3     OH2      OT      -0.834000       15.9994           0
     53678 WT5      980      TIP3     H1       HT       0.417000        1.0080           0
     53679 WT5      980      TIP3     H2       HT       0.417000        1.0080           0
     53680 WT5      981      TIP3     OH2      OT      -0.834000       15.9994           0
     53681 WT5      981      TIP3     H1       HT       0.417000        1.0080           0
     53682 WT5      981      TIP3     H2       HT       0.417000        1.0080           0
     53683 WT5      982      TIP3     OH2      OT      -0.834000       15.9994           0
     53684 WT5      982      TIP3     H1       HT       0.417000        1.0080           0
     53685 WT5      982      TIP3     H2       HT       0.417000        1.0080           0
     53686 WT5      983      TIP3     OH2      OT      -0.834000       15.9994           0
     53687 WT5      983      TIP3     H1       HT       0.417000        1.0080           0
     53688 WT5      983      TIP3     H2       HT       0.417000        1.0080           0
     53689 WT5      986      TIP3     OH2      OT      -0.834000       15.9994           0
     53690 WT5      986      TIP3     H1       HT       0.417000        1.0080           0
     53691 WT5      986      TIP3     H2       HT       0.417000        1.0080           0
     53692 WT5      988      TIP3     OH2      OT      -0.834000       15.9994           0
     53693 WT5      988      TIP3     H1       HT       0.417000        1.0080           0
     53694 WT5      988      TIP3     H2       HT       0.417000        1.0080           0
     53695 WT5      989      TIP3     OH2      OT      -0.834000       15.9994           0
     53696 WT5      989      TIP3     H1       HT       0.417000        1.0080           0
     53697 WT5      989      TIP3     H2       HT       0.417000        1.0080           0
     53698 WT5      991      TIP3     OH2      OT      -0.834000       15.9994           0
     53699 WT5      991      TIP3     H1       HT       0.417000        1.0080           0
     53700 WT5      991      TIP3     H2       HT       0.417000        1.0080           0
     53701 WT5      992      TIP3     OH2      OT      -0.834000       15.9994           0
     53702 WT5      992      TIP3     H1       HT       0.417000        1.0080           0
     53703 WT5      992      TIP3     H2       HT       0.417000        1.0080           0
     53704 WT5      994      TIP3     OH2      OT      -0.834000       15.9994           0
     53705 WT5      994      TIP3     H1       HT       0.417000        1.0080           0
     53706 WT5      994      TIP3     H2       HT       0.417000        1.0080           0
     53707 WT5      995      TIP3     OH2      OT      -0.834000       15.9994           0
     53708 WT5      995      TIP3     H1       HT       0.417000        1.0080           0
     53709 WT5      995      TIP3     H2       HT       0.417000        1.0080           0
     53710 WT5      996      TIP3     OH2      OT      -0.834000       15.9994           0
     53711 WT5      996      TIP3     H1       HT       0.417000        1.0080           0
     53712 WT5      996      TIP3     H2       HT       0.417000        1.0080           0
     53713 WT5      999      TIP3     OH2      OT      -0.834000       15.9994           0
     53714 WT5      999      TIP3     H1       HT       0.417000        1.0080           0
     53715 WT5      999      TIP3     H2       HT       0.417000        1.0080           0
     53716 WT5      1002     TIP3     OH2      OT      -0.834000       15.9994           0
     53717 WT5      1002     TIP3     H1       HT       0.417000        1.0080           0
     53718 WT5      1002     TIP3     H2       HT       0.417000        1.0080           0
     53719 WT5      1006     TIP3     OH2      OT      -0.834000       15.9994           0
     53720 WT5      1006     TIP3     H1       HT       0.417000        1.0080           0
     53721 WT5      1006     TIP3     H2       HT       0.417000        1.0080           0
     53722 WT5      1007     TIP3     OH2      OT      -0.834000       15.9994           0
     53723 WT5      1007     TIP3     H1       HT       0.417000        1.0080           0
     53724 WT5      1007     TIP3     H2       HT       0.417000        1.0080           0
     53725 WT5      1008     TIP3     OH2      OT      -0.834000       15.9994           0
     53726 WT5      1008     TIP3     H1       HT       0.417000        1.0080           0
     53727 WT5      1008     TIP3     H2       HT       0.417000        1.0080           0
     53728 WT5      1009     TIP3     OH2      OT      -0.834000       15.9994           0
     53729 WT5      1009     TIP3     H1       HT       0.417000        1.0080           0
     53730 WT5      1009     TIP3     H2       HT       0.417000        1.0080           0
     53731 WT5      1011     TIP3     OH2      OT      -0.834000       15.9994           0
     53732 WT5      1011     TIP3     H1       HT       0.417000        1.0080           0
     53733 WT5      1011     TIP3     H2       HT       0.417000        1.0080           0
     53734 WT5      1012     TIP3     OH2      OT      -0.834000       15.9994           0
     53735 WT5      1012     TIP3     H1       HT       0.417000        1.0080           0
     53736 WT5      1012     TIP3     H2       HT       0.417000        1.0080           0
     53737 WT5      1013     TIP3     OH2      OT      -0.834000       15.9994           0
     53738 WT5      1013     TIP3     H1       HT       0.417000        1.0080           0
     53739 WT5      1013     TIP3     H2       HT       0.417000        1.0080           0
     53740 WT5      1014     TIP3     OH2      OT      -0.834000       15.9994           0
     53741 WT5      1014     TIP3     H1       HT       0.417000        1.0080           0
     53742 WT5      1014     TIP3     H2       HT       0.417000        1.0080           0
     53743 WT5      1015     TIP3     OH2      OT      -0.834000       15.9994           0
     53744 WT5      1015     TIP3     H1       HT       0.417000        1.0080           0
     53745 WT5      1015     TIP3     H2       HT       0.417000        1.0080           0
     53746 WT5      1017     TIP3     OH2      OT      -0.834000       15.9994           0
     53747 WT5      1017     TIP3     H1       HT       0.417000        1.0080           0
     53748 WT5      1017     TIP3     H2       HT       0.417000        1.0080           0
     53749 WT5      1018     TIP3     OH2      OT      -0.834000       15.9994           0
     53750 WT5      1018     TIP3     H1       HT       0.417000        1.0080           0
     53751 WT5      1018     TIP3     H2       HT       0.417000        1.0080           0
     53752 WT5      1019     TIP3     OH2      OT      -0.834000       15.9994           0
     53753 WT5      1019     TIP3     H1       HT       0.417000        1.0080           0
     53754 WT5      1019     TIP3     H2       HT       0.417000        1.0080           0
     53755 WT5      1020     TIP3     OH2      OT      -0.834000       15.9994           0
     53756 WT5      1020     TIP3     H1       HT       0.417000        1.0080           0
     53757 WT5      1020     TIP3     H2       HT       0.417000        1.0080           0
     53758 WT5      1022     TIP3     OH2      OT      -0.834000       15.9994           0
     53759 WT5      1022     TIP3     H1       HT       0.417000        1.0080           0
     53760 WT5      1022     TIP3     H2       HT       0.417000        1.0080           0
     53761 WT5      1023     TIP3     OH2      OT      -0.834000       15.9994           0
     53762 WT5      1023     TIP3     H1       HT       0.417000        1.0080           0
     53763 WT5      1023     TIP3     H2       HT       0.417000        1.0080           0
     53764 WT5      1024     TIP3     OH2      OT      -0.834000       15.9994           0
     53765 WT5      1024     TIP3     H1       HT       0.417000        1.0080           0
     53766 WT5      1024     TIP3     H2       HT       0.417000        1.0080           0
     53767 WT5      1025     TIP3     OH2      OT      -0.834000       15.9994           0
     53768 WT5      1025     TIP3     H1       HT       0.417000        1.0080           0
     53769 WT5      1025     TIP3     H2       HT       0.417000        1.0080           0
     53770 WT5      1026     TIP3     OH2      OT      -0.834000       15.9994           0
     53771 WT5      1026     TIP3     H1       HT       0.417000        1.0080           0
     53772 WT5      1026     TIP3     H2       HT       0.417000        1.0080           0
     53773 WT5      1027     TIP3     OH2      OT      -0.834000       15.9994           0
     53774 WT5      1027     TIP3     H1       HT       0.417000        1.0080           0
     53775 WT5      1027     TIP3     H2       HT       0.417000        1.0080           0
     53776 WT5      1030     TIP3     OH2      OT      -0.834000       15.9994           0
     53777 WT5      1030     TIP3     H1       HT       0.417000        1.0080           0
     53778 WT5      1030     TIP3     H2       HT       0.417000        1.0080           0
     53779 WT5      1032     TIP3     OH2      OT      -0.834000       15.9994           0
     53780 WT5      1032     TIP3     H1       HT       0.417000        1.0080           0
     53781 WT5      1032     TIP3     H2       HT       0.417000        1.0080           0
     53782 WT5      1033     TIP3     OH2      OT      -0.834000       15.9994           0
     53783 WT5      1033     TIP3     H1       HT       0.417000        1.0080           0
     53784 WT5      1033     TIP3     H2       HT       0.417000        1.0080           0
     53785 WT5      1034     TIP3     OH2      OT      -0.834000       15.9994           0
     53786 WT5      1034     TIP3     H1       HT       0.417000        1.0080           0
     53787 WT5      1034     TIP3     H2       HT       0.417000        1.0080           0
     53788 WT5      1039     TIP3     OH2      OT      -0.834000       15.9994           0
     53789 WT5      1039     TIP3     H1       HT       0.417000        1.0080           0
     53790 WT5      1039     TIP3     H2       HT       0.417000        1.0080           0
     53791 WT5      1040     TIP3     OH2      OT      -0.834000       15.9994           0
     53792 WT5      1040     TIP3     H1       HT       0.417000        1.0080           0
     53793 WT5      1040     TIP3     H2       HT       0.417000        1.0080           0
     53794 WT5      1042     TIP3     OH2      OT      -0.834000       15.9994           0
     53795 WT5      1042     TIP3     H1       HT       0.417000        1.0080           0
     53796 WT5      1042     TIP3     H2       HT       0.417000        1.0080           0
     53797 WT5      1043     TIP3     OH2      OT      -0.834000       15.9994           0
     53798 WT5      1043     TIP3     H1       HT       0.417000        1.0080           0
     53799 WT5      1043     TIP3     H2       HT       0.417000        1.0080           0
     53800 WT5      1045     TIP3     OH2      OT      -0.834000       15.9994           0
     53801 WT5      1045     TIP3     H1       HT       0.417000        1.0080           0
     53802 WT5      1045     TIP3     H2       HT       0.417000        1.0080           0
     53803 WT5      1046     TIP3     OH2      OT      -0.834000       15.9994           0
     53804 WT5      1046     TIP3     H1       HT       0.417000        1.0080           0
     53805 WT5      1046     TIP3     H2       HT       0.417000        1.0080           0
     53806 WT5      1047     TIP3     OH2      OT      -0.834000       15.9994           0
     53807 WT5      1047     TIP3     H1       HT       0.417000        1.0080           0
     53808 WT5      1047     TIP3     H2       HT       0.417000        1.0080           0
     53809 WT5      1048     TIP3     OH2      OT      -0.834000       15.9994           0
     53810 WT5      1048     TIP3     H1       HT       0.417000        1.0080           0
     53811 WT5      1048     TIP3     H2       HT       0.417000        1.0080           0
     53812 WT5      1049     TIP3     OH2      OT      -0.834000       15.9994           0
     53813 WT5      1049     TIP3     H1       HT       0.417000        1.0080           0
     53814 WT5      1049     TIP3     H2       HT       0.417000        1.0080           0
     53815 WT5      1052     TIP3     OH2      OT      -0.834000       15.9994           0
     53816 WT5      1052     TIP3     H1       HT       0.417000        1.0080           0
     53817 WT5      1052     TIP3     H2       HT       0.417000        1.0080           0
     53818 WT5      1053     TIP3     OH2      OT      -0.834000       15.9994           0
     53819 WT5      1053     TIP3     H1       HT       0.417000        1.0080           0
     53820 WT5      1053     TIP3     H2       HT       0.417000        1.0080           0
     53821 WT5      1054     TIP3     OH2      OT      -0.834000       15.9994           0
     53822 WT5      1054     TIP3     H1       HT       0.417000        1.0080           0
     53823 WT5      1054     TIP3     H2       HT       0.417000        1.0080           0
     53824 WT5      1055     TIP3     OH2      OT      -0.834000       15.9994           0
     53825 WT5      1055     TIP3     H1       HT       0.417000        1.0080           0
     53826 WT5      1055     TIP3     H2       HT       0.417000        1.0080           0
     53827 WT5      1056     TIP3     OH2      OT      -0.834000       15.9994           0
     53828 WT5      1056     TIP3     H1       HT       0.417000        1.0080           0
     53829 WT5      1056     TIP3     H2       HT       0.417000        1.0080           0
     53830 WT5      1057     TIP3     OH2      OT      -0.834000       15.9994           0
     53831 WT5      1057     TIP3     H1       HT       0.417000        1.0080           0
     53832 WT5      1057     TIP3     H2       HT       0.417000        1.0080           0
     53833 WT5      1058     TIP3     OH2      OT      -0.834000       15.9994           0
     53834 WT5      1058     TIP3     H1       HT       0.417000        1.0080           0
     53835 WT5      1058     TIP3     H2       HT       0.417000        1.0080           0
     53836 WT5      1059     TIP3     OH2      OT      -0.834000       15.9994           0
     53837 WT5      1059     TIP3     H1       HT       0.417000        1.0080           0
     53838 WT5      1059     TIP3     H2       HT       0.417000        1.0080           0
     53839 WT5      1060     TIP3     OH2      OT      -0.834000       15.9994           0
     53840 WT5      1060     TIP3     H1       HT       0.417000        1.0080           0
     53841 WT5      1060     TIP3     H2       HT       0.417000        1.0080           0
     53842 WT5      1061     TIP3     OH2      OT      -0.834000       15.9994           0
     53843 WT5      1061     TIP3     H1       HT       0.417000        1.0080           0
     53844 WT5      1061     TIP3     H2       HT       0.417000        1.0080           0
     53845 WT5      1062     TIP3     OH2      OT      -0.834000       15.9994           0
     53846 WT5      1062     TIP3     H1       HT       0.417000        1.0080           0
     53847 WT5      1062     TIP3     H2       HT       0.417000        1.0080           0
     53848 WT5      1063     TIP3     OH2      OT      -0.834000       15.9994           0
     53849 WT5      1063     TIP3     H1       HT       0.417000        1.0080           0
     53850 WT5      1063     TIP3     H2       HT       0.417000        1.0080           0
     53851 WT5      1064     TIP3     OH2      OT      -0.834000       15.9994           0
     53852 WT5      1064     TIP3     H1       HT       0.417000        1.0080           0
     53853 WT5      1064     TIP3     H2       HT       0.417000        1.0080           0
     53854 WT5      1065     TIP3     OH2      OT      -0.834000       15.9994           0
     53855 WT5      1065     TIP3     H1       HT       0.417000        1.0080           0
     53856 WT5      1065     TIP3     H2       HT       0.417000        1.0080           0
     53857 WT5      1066     TIP3     OH2      OT      -0.834000       15.9994           0
     53858 WT5      1066     TIP3     H1       HT       0.417000        1.0080           0
     53859 WT5      1066     TIP3     H2       HT       0.417000        1.0080           0
     53860 WT5      1068     TIP3     OH2      OT      -0.834000       15.9994           0
     53861 WT5      1068     TIP3     H1       HT       0.417000        1.0080           0
     53862 WT5      1068     TIP3     H2       HT       0.417000        1.0080           0
     53863 WT5      1069     TIP3     OH2      OT      -0.834000       15.9994           0
     53864 WT5      1069     TIP3     H1       HT       0.417000        1.0080           0
     53865 WT5      1069     TIP3     H2       HT       0.417000        1.0080           0
     53866 WT5      1071     TIP3     OH2      OT      -0.834000       15.9994           0
     53867 WT5      1071     TIP3     H1       HT       0.417000        1.0080           0
     53868 WT5      1071     TIP3     H2       HT       0.417000        1.0080           0
     53869 WT5      1072     TIP3     OH2      OT      -0.834000       15.9994           0
     53870 WT5      1072     TIP3     H1       HT       0.417000        1.0080           0
     53871 WT5      1072     TIP3     H2       HT       0.417000        1.0080           0
     53872 WT5      1074     TIP3     OH2      OT      -0.834000       15.9994           0
     53873 WT5      1074     TIP3     H1       HT       0.417000        1.0080           0
     53874 WT5      1074     TIP3     H2       HT       0.417000        1.0080           0
     53875 WT5      1076     TIP3     OH2      OT      -0.834000       15.9994           0
     53876 WT5      1076     TIP3     H1       HT       0.417000        1.0080           0
     53877 WT5      1076     TIP3     H2       HT       0.417000        1.0080           0
     53878 WT5      1077     TIP3     OH2      OT      -0.834000       15.9994           0
     53879 WT5      1077     TIP3     H1       HT       0.417000        1.0080           0
     53880 WT5      1077     TIP3     H2       HT       0.417000        1.0080           0
     53881 WT5      1078     TIP3     OH2      OT      -0.834000       15.9994           0
     53882 WT5      1078     TIP3     H1       HT       0.417000        1.0080           0
     53883 WT5      1078     TIP3     H2       HT       0.417000        1.0080           0
     53884 WT5      1079     TIP3     OH2      OT      -0.834000       15.9994           0
     53885 WT5      1079     TIP3     H1       HT       0.417000        1.0080           0
     53886 WT5      1079     TIP3     H2       HT       0.417000        1.0080           0
     53887 WT5      1080     TIP3     OH2      OT      -0.834000       15.9994           0
     53888 WT5      1080     TIP3     H1       HT       0.417000        1.0080           0
     53889 WT5      1080     TIP3     H2       HT       0.417000        1.0080           0
     53890 WT5      1081     TIP3     OH2      OT      -0.834000       15.9994           0
     53891 WT5      1081     TIP3     H1       HT       0.417000        1.0080           0
     53892 WT5      1081     TIP3     H2       HT       0.417000        1.0080           0
     53893 WT5      1082     TIP3     OH2      OT      -0.834000       15.9994           0
     53894 WT5      1082     TIP3     H1       HT       0.417000        1.0080           0
     53895 WT5      1082     TIP3     H2       HT       0.417000        1.0080           0
     53896 WT5      1085     TIP3     OH2      OT      -0.834000       15.9994           0
     53897 WT5      1085     TIP3     H1       HT       0.417000        1.0080           0
     53898 WT5      1085     TIP3     H2       HT       0.417000        1.0080           0
     53899 WT5      1087     TIP3     OH2      OT      -0.834000       15.9994           0
     53900 WT5      1087     TIP3     H1       HT       0.417000        1.0080           0
     53901 WT5      1087     TIP3     H2       HT       0.417000        1.0080           0
     53902 WT5      1088     TIP3     OH2      OT      -0.834000       15.9994           0
     53903 WT5      1088     TIP3     H1       HT       0.417000        1.0080           0
     53904 WT5      1088     TIP3     H2       HT       0.417000        1.0080           0
     53905 WT5      1090     TIP3     OH2      OT      -0.834000       15.9994           0
     53906 WT5      1090     TIP3     H1       HT       0.417000        1.0080           0
     53907 WT5      1090     TIP3     H2       HT       0.417000        1.0080           0
     53908 WT5      1091     TIP3     OH2      OT      -0.834000       15.9994           0
     53909 WT5      1091     TIP3     H1       HT       0.417000        1.0080           0
     53910 WT5      1091     TIP3     H2       HT       0.417000        1.0080           0
     53911 WT5      1095     TIP3     OH2      OT      -0.834000       15.9994           0
     53912 WT5      1095     TIP3     H1       HT       0.417000        1.0080           0
     53913 WT5      1095     TIP3     H2       HT       0.417000        1.0080           0
     53914 WT5      1096     TIP3     OH2      OT      -0.834000       15.9994           0
     53915 WT5      1096     TIP3     H1       HT       0.417000        1.0080           0
     53916 WT5      1096     TIP3     H2       HT       0.417000        1.0080           0
     53917 WT5      1097     TIP3     OH2      OT      -0.834000       15.9994           0
     53918 WT5      1097     TIP3     H1       HT       0.417000        1.0080           0
     53919 WT5      1097     TIP3     H2       HT       0.417000        1.0080           0
     53920 WT5      1098     TIP3     OH2      OT      -0.834000       15.9994           0
     53921 WT5      1098     TIP3     H1       HT       0.417000        1.0080           0
     53922 WT5      1098     TIP3     H2       HT       0.417000        1.0080           0
     53923 WT5      1099     TIP3     OH2      OT      -0.834000       15.9994           0
     53924 WT5      1099     TIP3     H1       HT       0.417000        1.0080           0
     53925 WT5      1099     TIP3     H2       HT       0.417000        1.0080           0
     53926 WT5      1100     TIP3     OH2      OT      -0.834000       15.9994           0
     53927 WT5      1100     TIP3     H1       HT       0.417000        1.0080           0
     53928 WT5      1100     TIP3     H2       HT       0.417000        1.0080           0
     53929 WT5      1101     TIP3     OH2      OT      -0.834000       15.9994           0
     53930 WT5      1101     TIP3     H1       HT       0.417000        1.0080           0
     53931 WT5      1101     TIP3     H2       HT       0.417000        1.0080           0
     53932 WT5      1102     TIP3     OH2      OT      -0.834000       15.9994           0
     53933 WT5      1102     TIP3     H1       HT       0.417000        1.0080           0
     53934 WT5      1102     TIP3     H2       HT       0.417000        1.0080           0
     53935 WT5      1103     TIP3     OH2      OT      -0.834000       15.9994           0
     53936 WT5      1103     TIP3     H1       HT       0.417000        1.0080           0
     53937 WT5      1103     TIP3     H2       HT       0.417000        1.0080           0
     53938 WT5      1104     TIP3     OH2      OT      -0.834000       15.9994           0
     53939 WT5      1104     TIP3     H1       HT       0.417000        1.0080           0
     53940 WT5      1104     TIP3     H2       HT       0.417000        1.0080           0
     53941 WT5      1105     TIP3     OH2      OT      -0.834000       15.9994           0
     53942 WT5      1105     TIP3     H1       HT       0.417000        1.0080           0
     53943 WT5      1105     TIP3     H2       HT       0.417000        1.0080           0
     53944 WT5      1107     TIP3     OH2      OT      -0.834000       15.9994           0
     53945 WT5      1107     TIP3     H1       HT       0.417000        1.0080           0
     53946 WT5      1107     TIP3     H2       HT       0.417000        1.0080           0
     53947 WT5      1109     TIP3     OH2      OT      -0.834000       15.9994           0
     53948 WT5      1109     TIP3     H1       HT       0.417000        1.0080           0
     53949 WT5      1109     TIP3     H2       HT       0.417000        1.0080           0
     53950 WT5      1110     TIP3     OH2      OT      -0.834000       15.9994           0
     53951 WT5      1110     TIP3     H1       HT       0.417000        1.0080           0
     53952 WT5      1110     TIP3     H2       HT       0.417000        1.0080           0
     53953 WT5      1111     TIP3     OH2      OT      -0.834000       15.9994           0
     53954 WT5      1111     TIP3     H1       HT       0.417000        1.0080           0
     53955 WT5      1111     TIP3     H2       HT       0.417000        1.0080           0
     53956 WT5      1112     TIP3     OH2      OT      -0.834000       15.9994           0
     53957 WT5      1112     TIP3     H1       HT       0.417000        1.0080           0
     53958 WT5      1112     TIP3     H2       HT       0.417000        1.0080           0
     53959 WT5      1114     TIP3     OH2      OT      -0.834000       15.9994           0
     53960 WT5      1114     TIP3     H1       HT       0.417000        1.0080           0
     53961 WT5      1114     TIP3     H2       HT       0.417000        1.0080           0
     53962 WT5      1115     TIP3     OH2      OT      -0.834000       15.9994           0
     53963 WT5      1115     TIP3     H1       HT       0.417000        1.0080           0
     53964 WT5      1115     TIP3     H2       HT       0.417000        1.0080           0
     53965 WT5      1116     TIP3     OH2      OT      -0.834000       15.9994           0
     53966 WT5      1116     TIP3     H1       HT       0.417000        1.0080           0
     53967 WT5      1116     TIP3     H2       HT       0.417000        1.0080           0
     53968 WT5      1117     TIP3     OH2      OT      -0.834000       15.9994           0
     53969 WT5      1117     TIP3     H1       HT       0.417000        1.0080           0
     53970 WT5      1117     TIP3     H2       HT       0.417000        1.0080           0
     53971 WT5      1118     TIP3     OH2      OT      -0.834000       15.9994           0
     53972 WT5      1118     TIP3     H1       HT       0.417000        1.0080           0
     53973 WT5      1118     TIP3     H2       HT       0.417000        1.0080           0
     53974 WT5      1120     TIP3     OH2      OT      -0.834000       15.9994           0
     53975 WT5      1120     TIP3     H1       HT       0.417000        1.0080           0
     53976 WT5      1120     TIP3     H2       HT       0.417000        1.0080           0
     53977 WT5      1121     TIP3     OH2      OT      -0.834000       15.9994           0
     53978 WT5      1121     TIP3     H1       HT       0.417000        1.0080           0
     53979 WT5      1121     TIP3     H2       HT       0.417000        1.0080           0
     53980 WT5      1122     TIP3     OH2      OT      -0.834000       15.9994           0
     53981 WT5      1122     TIP3     H1       HT       0.417000        1.0080           0
     53982 WT5      1122     TIP3     H2       HT       0.417000        1.0080           0
     53983 WT5      1123     TIP3     OH2      OT      -0.834000       15.9994           0
     53984 WT5      1123     TIP3     H1       HT       0.417000        1.0080           0
     53985 WT5      1123     TIP3     H2       HT       0.417000        1.0080           0
     53986 WT5      1125     TIP3     OH2      OT      -0.834000       15.9994           0
     53987 WT5      1125     TIP3     H1       HT       0.417000        1.0080           0
     53988 WT5      1125     TIP3     H2       HT       0.417000        1.0080           0
     53989 WT5      1128     TIP3     OH2      OT      -0.834000       15.9994           0
     53990 WT5      1128     TIP3     H1       HT       0.417000        1.0080           0
     53991 WT5      1128     TIP3     H2       HT       0.417000        1.0080           0
     53992 WT5      1129     TIP3     OH2      OT      -0.834000       15.9994           0
     53993 WT5      1129     TIP3     H1       HT       0.417000        1.0080           0
     53994 WT5      1129     TIP3     H2       HT       0.417000        1.0080           0
     53995 WT5      1130     TIP3     OH2      OT      -0.834000       15.9994           0
     53996 WT5      1130     TIP3     H1       HT       0.417000        1.0080           0
     53997 WT5      1130     TIP3     H2       HT       0.417000        1.0080           0
     53998 WT5      1131     TIP3     OH2      OT      -0.834000       15.9994           0
     53999 WT5      1131     TIP3     H1       HT       0.417000        1.0080           0
     54000 WT5      1131     TIP3     H2       HT       0.417000        1.0080           0
     54001 WT5      1132     TIP3     OH2      OT      -0.834000       15.9994           0
     54002 WT5      1132     TIP3     H1       HT       0.417000        1.0080           0
     54003 WT5      1132     TIP3     H2       HT       0.417000        1.0080           0
     54004 WT5      1133     TIP3     OH2      OT      -0.834000       15.9994           0
     54005 WT5      1133     TIP3     H1       HT       0.417000        1.0080           0
     54006 WT5      1133     TIP3     H2       HT       0.417000        1.0080           0
     54007 WT5      1134     TIP3     OH2      OT      -0.834000       15.9994           0
     54008 WT5      1134     TIP3     H1       HT       0.417000        1.0080           0
     54009 WT5      1134     TIP3     H2       HT       0.417000        1.0080           0
     54010 WT5      1135     TIP3     OH2      OT      -0.834000       15.9994           0
     54011 WT5      1135     TIP3     H1       HT       0.417000        1.0080           0
     54012 WT5      1135     TIP3     H2       HT       0.417000        1.0080           0
     54013 WT5      1136     TIP3     OH2      OT      -0.834000       15.9994           0
     54014 WT5      1136     TIP3     H1       HT       0.417000        1.0080           0
     54015 WT5      1136     TIP3     H2       HT       0.417000        1.0080           0
     54016 WT5      1138     TIP3     OH2      OT      -0.834000       15.9994           0
     54017 WT5      1138     TIP3     H1       HT       0.417000        1.0080           0
     54018 WT5      1138     TIP3     H2       HT       0.417000        1.0080           0
     54019 WT5      1139     TIP3     OH2      OT      -0.834000       15.9994           0
     54020 WT5      1139     TIP3     H1       HT       0.417000        1.0080           0
     54021 WT5      1139     TIP3     H2       HT       0.417000        1.0080           0
     54022 WT5      1140     TIP3     OH2      OT      -0.834000       15.9994           0
     54023 WT5      1140     TIP3     H1       HT       0.417000        1.0080           0
     54024 WT5      1140     TIP3     H2       HT       0.417000        1.0080           0
     54025 WT5      1142     TIP3     OH2      OT      -0.834000       15.9994           0
     54026 WT5      1142     TIP3     H1       HT       0.417000        1.0080           0
     54027 WT5      1142     TIP3     H2       HT       0.417000        1.0080           0
     54028 WT5      1143     TIP3     OH2      OT      -0.834000       15.9994           0
     54029 WT5      1143     TIP3     H1       HT       0.417000        1.0080           0
     54030 WT5      1143     TIP3     H2       HT       0.417000        1.0080           0
     54031 WT5      1144     TIP3     OH2      OT      -0.834000       15.9994           0
     54032 WT5      1144     TIP3     H1       HT       0.417000        1.0080           0
     54033 WT5      1144     TIP3     H2       HT       0.417000        1.0080           0
     54034 WT5      1145     TIP3     OH2      OT      -0.834000       15.9994           0
     54035 WT5      1145     TIP3     H1       HT       0.417000        1.0080           0
     54036 WT5      1145     TIP3     H2       HT       0.417000        1.0080           0
     54037 WT5      1147     TIP3     OH2      OT      -0.834000       15.9994           0
     54038 WT5      1147     TIP3     H1       HT       0.417000        1.0080           0
     54039 WT5      1147     TIP3     H2       HT       0.417000        1.0080           0
     54040 WT5      1148     TIP3     OH2      OT      -0.834000       15.9994           0
     54041 WT5      1148     TIP3     H1       HT       0.417000        1.0080           0
     54042 WT5      1148     TIP3     H2       HT       0.417000        1.0080           0
     54043 WT5      1150     TIP3     OH2      OT      -0.834000       15.9994           0
     54044 WT5      1150     TIP3     H1       HT       0.417000        1.0080           0
     54045 WT5      1150     TIP3     H2       HT       0.417000        1.0080           0
     54046 WT5      1151     TIP3     OH2      OT      -0.834000       15.9994           0
     54047 WT5      1151     TIP3     H1       HT       0.417000        1.0080           0
     54048 WT5      1151     TIP3     H2       HT       0.417000        1.0080           0
     54049 WT5      1153     TIP3     OH2      OT      -0.834000       15.9994           0
     54050 WT5      1153     TIP3     H1       HT       0.417000        1.0080           0
     54051 WT5      1153     TIP3     H2       HT       0.417000        1.0080           0
     54052 WT5      1154     TIP3     OH2      OT      -0.834000       15.9994           0
     54053 WT5      1154     TIP3     H1       HT       0.417000        1.0080           0
     54054 WT5      1154     TIP3     H2       HT       0.417000        1.0080           0
     54055 WT5      1155     TIP3     OH2      OT      -0.834000       15.9994           0
     54056 WT5      1155     TIP3     H1       HT       0.417000        1.0080           0
     54057 WT5      1155     TIP3     H2       HT       0.417000        1.0080           0
     54058 WT5      1156     TIP3     OH2      OT      -0.834000       15.9994           0
     54059 WT5      1156     TIP3     H1       HT       0.417000        1.0080           0
     54060 WT5      1156     TIP3     H2       HT       0.417000        1.0080           0
     54061 WT5      1157     TIP3     OH2      OT      -0.834000       15.9994           0
     54062 WT5      1157     TIP3     H1       HT       0.417000        1.0080           0
     54063 WT5      1157     TIP3     H2       HT       0.417000        1.0080           0
     54064 WT5      1158     TIP3     OH2      OT      -0.834000       15.9994           0
     54065 WT5      1158     TIP3     H1       HT       0.417000        1.0080           0
     54066 WT5      1158     TIP3     H2       HT       0.417000        1.0080           0
     54067 WT5      1160     TIP3     OH2      OT      -0.834000       15.9994           0
     54068 WT5      1160     TIP3     H1       HT       0.417000        1.0080           0
     54069 WT5      1160     TIP3     H2       HT       0.417000        1.0080           0
     54070 WT5      1161     TIP3     OH2      OT      -0.834000       15.9994           0
     54071 WT5      1161     TIP3     H1       HT       0.417000        1.0080           0
     54072 WT5      1161     TIP3     H2       HT       0.417000        1.0080           0
     54073 WT5      1162     TIP3     OH2      OT      -0.834000       15.9994           0
     54074 WT5      1162     TIP3     H1       HT       0.417000        1.0080           0
     54075 WT5      1162     TIP3     H2       HT       0.417000        1.0080           0
     54076 WT5      1163     TIP3     OH2      OT      -0.834000       15.9994           0
     54077 WT5      1163     TIP3     H1       HT       0.417000        1.0080           0
     54078 WT5      1163     TIP3     H2       HT       0.417000        1.0080           0
     54079 WT5      1164     TIP3     OH2      OT      -0.834000       15.9994           0
     54080 WT5      1164     TIP3     H1       HT       0.417000        1.0080           0
     54081 WT5      1164     TIP3     H2       HT       0.417000        1.0080           0
     54082 WT5      1166     TIP3     OH2      OT      -0.834000       15.9994           0
     54083 WT5      1166     TIP3     H1       HT       0.417000        1.0080           0
     54084 WT5      1166     TIP3     H2       HT       0.417000        1.0080           0
     54085 WT5      1167     TIP3     OH2      OT      -0.834000       15.9994           0
     54086 WT5      1167     TIP3     H1       HT       0.417000        1.0080           0
     54087 WT5      1167     TIP3     H2       HT       0.417000        1.0080           0
     54088 WT5      1168     TIP3     OH2      OT      -0.834000       15.9994           0
     54089 WT5      1168     TIP3     H1       HT       0.417000        1.0080           0
     54090 WT5      1168     TIP3     H2       HT       0.417000        1.0080           0
     54091 WT5      1169     TIP3     OH2      OT      -0.834000       15.9994           0
     54092 WT5      1169     TIP3     H1       HT       0.417000        1.0080           0
     54093 WT5      1169     TIP3     H2       HT       0.417000        1.0080           0
     54094 WT5      1170     TIP3     OH2      OT      -0.834000       15.9994           0
     54095 WT5      1170     TIP3     H1       HT       0.417000        1.0080           0
     54096 WT5      1170     TIP3     H2       HT       0.417000        1.0080           0
     54097 WT5      1171     TIP3     OH2      OT      -0.834000       15.9994           0
     54098 WT5      1171     TIP3     H1       HT       0.417000        1.0080           0
     54099 WT5      1171     TIP3     H2       HT       0.417000        1.0080           0
     54100 WT5      1172     TIP3     OH2      OT      -0.834000       15.9994           0
     54101 WT5      1172     TIP3     H1       HT       0.417000        1.0080           0
     54102 WT5      1172     TIP3     H2       HT       0.417000        1.0080           0
     54103 WT5      1173     TIP3     OH2      OT      -0.834000       15.9994           0
     54104 WT5      1173     TIP3     H1       HT       0.417000        1.0080           0
     54105 WT5      1173     TIP3     H2       HT       0.417000        1.0080           0
     54106 WT5      1176     TIP3     OH2      OT      -0.834000       15.9994           0
     54107 WT5      1176     TIP3     H1       HT       0.417000        1.0080           0
     54108 WT5      1176     TIP3     H2       HT       0.417000        1.0080           0
     54109 WT5      1178     TIP3     OH2      OT      -0.834000       15.9994           0
     54110 WT5      1178     TIP3     H1       HT       0.417000        1.0080           0
     54111 WT5      1178     TIP3     H2       HT       0.417000        1.0080           0
     54112 WT5      1179     TIP3     OH2      OT      -0.834000       15.9994           0
     54113 WT5      1179     TIP3     H1       HT       0.417000        1.0080           0
     54114 WT5      1179     TIP3     H2       HT       0.417000        1.0080           0
     54115 WT5      1180     TIP3     OH2      OT      -0.834000       15.9994           0
     54116 WT5      1180     TIP3     H1       HT       0.417000        1.0080           0
     54117 WT5      1180     TIP3     H2       HT       0.417000        1.0080           0
     54118 WT5      1181     TIP3     OH2      OT      -0.834000       15.9994           0
     54119 WT5      1181     TIP3     H1       HT       0.417000        1.0080           0
     54120 WT5      1181     TIP3     H2       HT       0.417000        1.0080           0
     54121 WT5      1182     TIP3     OH2      OT      -0.834000       15.9994           0
     54122 WT5      1182     TIP3     H1       HT       0.417000        1.0080           0
     54123 WT5      1182     TIP3     H2       HT       0.417000        1.0080           0
     54124 WT5      1183     TIP3     OH2      OT      -0.834000       15.9994           0
     54125 WT5      1183     TIP3     H1       HT       0.417000        1.0080           0
     54126 WT5      1183     TIP3     H2       HT       0.417000        1.0080           0
     54127 WT5      1184     TIP3     OH2      OT      -0.834000       15.9994           0
     54128 WT5      1184     TIP3     H1       HT       0.417000        1.0080           0
     54129 WT5      1184     TIP3     H2       HT       0.417000        1.0080           0
     54130 WT5      1186     TIP3     OH2      OT      -0.834000       15.9994           0
     54131 WT5      1186     TIP3     H1       HT       0.417000        1.0080           0
     54132 WT5      1186     TIP3     H2       HT       0.417000        1.0080           0
     54133 WT5      1187     TIP3     OH2      OT      -0.834000       15.9994           0
     54134 WT5      1187     TIP3     H1       HT       0.417000        1.0080           0
     54135 WT5      1187     TIP3     H2       HT       0.417000        1.0080           0
     54136 WT5      1188     TIP3     OH2      OT      -0.834000       15.9994           0
     54137 WT5      1188     TIP3     H1       HT       0.417000        1.0080           0
     54138 WT5      1188     TIP3     H2       HT       0.417000        1.0080           0
     54139 WT5      1191     TIP3     OH2      OT      -0.834000       15.9994           0
     54140 WT5      1191     TIP3     H1       HT       0.417000        1.0080           0
     54141 WT5      1191     TIP3     H2       HT       0.417000        1.0080           0
     54142 WT5      1192     TIP3     OH2      OT      -0.834000       15.9994           0
     54143 WT5      1192     TIP3     H1       HT       0.417000        1.0080           0
     54144 WT5      1192     TIP3     H2       HT       0.417000        1.0080           0
     54145 WT5      1193     TIP3     OH2      OT      -0.834000       15.9994           0
     54146 WT5      1193     TIP3     H1       HT       0.417000        1.0080           0
     54147 WT5      1193     TIP3     H2       HT       0.417000        1.0080           0
     54148 WT5      1194     TIP3     OH2      OT      -0.834000       15.9994           0
     54149 WT5      1194     TIP3     H1       HT       0.417000        1.0080           0
     54150 WT5      1194     TIP3     H2       HT       0.417000        1.0080           0
     54151 WT5      1195     TIP3     OH2      OT      -0.834000       15.9994           0
     54152 WT5      1195     TIP3     H1       HT       0.417000        1.0080           0
     54153 WT5      1195     TIP3     H2       HT       0.417000        1.0080           0
     54154 WT5      1197     TIP3     OH2      OT      -0.834000       15.9994           0
     54155 WT5      1197     TIP3     H1       HT       0.417000        1.0080           0
     54156 WT5      1197     TIP3     H2       HT       0.417000        1.0080           0
     54157 WT5      1199     TIP3     OH2      OT      -0.834000       15.9994           0
     54158 WT5      1199     TIP3     H1       HT       0.417000        1.0080           0
     54159 WT5      1199     TIP3     H2       HT       0.417000        1.0080           0
     54160 WT5      1200     TIP3     OH2      OT      -0.834000       15.9994           0
     54161 WT5      1200     TIP3     H1       HT       0.417000        1.0080           0
     54162 WT5      1200     TIP3     H2       HT       0.417000        1.0080           0
     54163 WT5      1201     TIP3     OH2      OT      -0.834000       15.9994           0
     54164 WT5      1201     TIP3     H1       HT       0.417000        1.0080           0
     54165 WT5      1201     TIP3     H2       HT       0.417000        1.0080           0
     54166 WT5      1202     TIP3     OH2      OT      -0.834000       15.9994           0
     54167 WT5      1202     TIP3     H1       HT       0.417000        1.0080           0
     54168 WT5      1202     TIP3     H2       HT       0.417000        1.0080           0
     54169 WT5      1204     TIP3     OH2      OT      -0.834000       15.9994           0
     54170 WT5      1204     TIP3     H1       HT       0.417000        1.0080           0
     54171 WT5      1204     TIP3     H2       HT       0.417000        1.0080           0
     54172 WT5      1206     TIP3     OH2      OT      -0.834000       15.9994           0
     54173 WT5      1206     TIP3     H1       HT       0.417000        1.0080           0
     54174 WT5      1206     TIP3     H2       HT       0.417000        1.0080           0
     54175 WT5      1207     TIP3     OH2      OT      -0.834000       15.9994           0
     54176 WT5      1207     TIP3     H1       HT       0.417000        1.0080           0
     54177 WT5      1207     TIP3     H2       HT       0.417000        1.0080           0
     54178 WT5      1208     TIP3     OH2      OT      -0.834000       15.9994           0
     54179 WT5      1208     TIP3     H1       HT       0.417000        1.0080           0
     54180 WT5      1208     TIP3     H2       HT       0.417000        1.0080           0
     54181 WT5      1209     TIP3     OH2      OT      -0.834000       15.9994           0
     54182 WT5      1209     TIP3     H1       HT       0.417000        1.0080           0
     54183 WT5      1209     TIP3     H2       HT       0.417000        1.0080           0
     54184 WT5      1210     TIP3     OH2      OT      -0.834000       15.9994           0
     54185 WT5      1210     TIP3     H1       HT       0.417000        1.0080           0
     54186 WT5      1210     TIP3     H2       HT       0.417000        1.0080           0
     54187 WT5      1211     TIP3     OH2      OT      -0.834000       15.9994           0
     54188 WT5      1211     TIP3     H1       HT       0.417000        1.0080           0
     54189 WT5      1211     TIP3     H2       HT       0.417000        1.0080           0
     54190 WT5      1212     TIP3     OH2      OT      -0.834000       15.9994           0
     54191 WT5      1212     TIP3     H1       HT       0.417000        1.0080           0
     54192 WT5      1212     TIP3     H2       HT       0.417000        1.0080           0
     54193 WT5      1213     TIP3     OH2      OT      -0.834000       15.9994           0
     54194 WT5      1213     TIP3     H1       HT       0.417000        1.0080           0
     54195 WT5      1213     TIP3     H2       HT       0.417000        1.0080           0
     54196 WT5      1214     TIP3     OH2      OT      -0.834000       15.9994           0
     54197 WT5      1214     TIP3     H1       HT       0.417000        1.0080           0
     54198 WT5      1214     TIP3     H2       HT       0.417000        1.0080           0
     54199 WT5      1215     TIP3     OH2      OT      -0.834000       15.9994           0
     54200 WT5      1215     TIP3     H1       HT       0.417000        1.0080           0
     54201 WT5      1215     TIP3     H2       HT       0.417000        1.0080           0
     54202 WT5      1216     TIP3     OH2      OT      -0.834000       15.9994           0
     54203 WT5      1216     TIP3     H1       HT       0.417000        1.0080           0
     54204 WT5      1216     TIP3     H2       HT       0.417000        1.0080           0
     54205 WT5      1217     TIP3     OH2      OT      -0.834000       15.9994           0
     54206 WT5      1217     TIP3     H1       HT       0.417000        1.0080           0
     54207 WT5      1217     TIP3     H2       HT       0.417000        1.0080           0
     54208 WT5      1218     TIP3     OH2      OT      -0.834000       15.9994           0
     54209 WT5      1218     TIP3     H1       HT       0.417000        1.0080           0
     54210 WT5      1218     TIP3     H2       HT       0.417000        1.0080           0
     54211 WT5      1219     TIP3     OH2      OT      -0.834000       15.9994           0
     54212 WT5      1219     TIP3     H1       HT       0.417000        1.0080           0
     54213 WT5      1219     TIP3     H2       HT       0.417000        1.0080           0
     54214 WT5      1220     TIP3     OH2      OT      -0.834000       15.9994           0
     54215 WT5      1220     TIP3     H1       HT       0.417000        1.0080           0
     54216 WT5      1220     TIP3     H2       HT       0.417000        1.0080           0
     54217 WT5      1221     TIP3     OH2      OT      -0.834000       15.9994           0
     54218 WT5      1221     TIP3     H1       HT       0.417000        1.0080           0
     54219 WT5      1221     TIP3     H2       HT       0.417000        1.0080           0
     54220 WT5      1222     TIP3     OH2      OT      -0.834000       15.9994           0
     54221 WT5      1222     TIP3     H1       HT       0.417000        1.0080           0
     54222 WT5      1222     TIP3     H2       HT       0.417000        1.0080           0
     54223 WT5      1223     TIP3     OH2      OT      -0.834000       15.9994           0
     54224 WT5      1223     TIP3     H1       HT       0.417000        1.0080           0
     54225 WT5      1223     TIP3     H2       HT       0.417000        1.0080           0
     54226 WT5      1224     TIP3     OH2      OT      -0.834000       15.9994           0
     54227 WT5      1224     TIP3     H1       HT       0.417000        1.0080           0
     54228 WT5      1224     TIP3     H2       HT       0.417000        1.0080           0
     54229 WT5      1225     TIP3     OH2      OT      -0.834000       15.9994           0
     54230 WT5      1225     TIP3     H1       HT       0.417000        1.0080           0
     54231 WT5      1225     TIP3     H2       HT       0.417000        1.0080           0
     54232 WT5      1226     TIP3     OH2      OT      -0.834000       15.9994           0
     54233 WT5      1226     TIP3     H1       HT       0.417000        1.0080           0
     54234 WT5      1226     TIP3     H2       HT       0.417000        1.0080           0
     54235 WT5      1229     TIP3     OH2      OT      -0.834000       15.9994           0
     54236 WT5      1229     TIP3     H1       HT       0.417000        1.0080           0
     54237 WT5      1229     TIP3     H2       HT       0.417000        1.0080           0
     54238 WT5      1230     TIP3     OH2      OT      -0.834000       15.9994           0
     54239 WT5      1230     TIP3     H1       HT       0.417000        1.0080           0
     54240 WT5      1230     TIP3     H2       HT       0.417000        1.0080           0
     54241 WT5      1231     TIP3     OH2      OT      -0.834000       15.9994           0
     54242 WT5      1231     TIP3     H1       HT       0.417000        1.0080           0
     54243 WT5      1231     TIP3     H2       HT       0.417000        1.0080           0
     54244 WT5      1232     TIP3     OH2      OT      -0.834000       15.9994           0
     54245 WT5      1232     TIP3     H1       HT       0.417000        1.0080           0
     54246 WT5      1232     TIP3     H2       HT       0.417000        1.0080           0
     54247 WT5      1234     TIP3     OH2      OT      -0.834000       15.9994           0
     54248 WT5      1234     TIP3     H1       HT       0.417000        1.0080           0
     54249 WT5      1234     TIP3     H2       HT       0.417000        1.0080           0
     54250 WT5      1235     TIP3     OH2      OT      -0.834000       15.9994           0
     54251 WT5      1235     TIP3     H1       HT       0.417000        1.0080           0
     54252 WT5      1235     TIP3     H2       HT       0.417000        1.0080           0
     54253 WT5      1237     TIP3     OH2      OT      -0.834000       15.9994           0
     54254 WT5      1237     TIP3     H1       HT       0.417000        1.0080           0
     54255 WT5      1237     TIP3     H2       HT       0.417000        1.0080           0
     54256 WT5      1239     TIP3     OH2      OT      -0.834000       15.9994           0
     54257 WT5      1239     TIP3     H1       HT       0.417000        1.0080           0
     54258 WT5      1239     TIP3     H2       HT       0.417000        1.0080           0
     54259 WT5      1240     TIP3     OH2      OT      -0.834000       15.9994           0
     54260 WT5      1240     TIP3     H1       HT       0.417000        1.0080           0
     54261 WT5      1240     TIP3     H2       HT       0.417000        1.0080           0
     54262 WT5      1242     TIP3     OH2      OT      -0.834000       15.9994           0
     54263 WT5      1242     TIP3     H1       HT       0.417000        1.0080           0
     54264 WT5      1242     TIP3     H2       HT       0.417000        1.0080           0
     54265 WT5      1244     TIP3     OH2      OT      -0.834000       15.9994           0
     54266 WT5      1244     TIP3     H1       HT       0.417000        1.0080           0
     54267 WT5      1244     TIP3     H2       HT       0.417000        1.0080           0
     54268 WT5      1245     TIP3     OH2      OT      -0.834000       15.9994           0
     54269 WT5      1245     TIP3     H1       HT       0.417000        1.0080           0
     54270 WT5      1245     TIP3     H2       HT       0.417000        1.0080           0
     54271 WT5      1247     TIP3     OH2      OT      -0.834000       15.9994           0
     54272 WT5      1247     TIP3     H1       HT       0.417000        1.0080           0
     54273 WT5      1247     TIP3     H2       HT       0.417000        1.0080           0
     54274 WT5      1248     TIP3     OH2      OT      -0.834000       15.9994           0
     54275 WT5      1248     TIP3     H1       HT       0.417000        1.0080           0
     54276 WT5      1248     TIP3     H2       HT       0.417000        1.0080           0
     54277 WT5      1249     TIP3     OH2      OT      -0.834000       15.9994           0
     54278 WT5      1249     TIP3     H1       HT       0.417000        1.0080           0
     54279 WT5      1249     TIP3     H2       HT       0.417000        1.0080           0
     54280 WT5      1251     TIP3     OH2      OT      -0.834000       15.9994           0
     54281 WT5      1251     TIP3     H1       HT       0.417000        1.0080           0
     54282 WT5      1251     TIP3     H2       HT       0.417000        1.0080           0
     54283 WT5      1252     TIP3     OH2      OT      -0.834000       15.9994           0
     54284 WT5      1252     TIP3     H1       HT       0.417000        1.0080           0
     54285 WT5      1252     TIP3     H2       HT       0.417000        1.0080           0
     54286 WT5      1253     TIP3     OH2      OT      -0.834000       15.9994           0
     54287 WT5      1253     TIP3     H1       HT       0.417000        1.0080           0
     54288 WT5      1253     TIP3     H2       HT       0.417000        1.0080           0
     54289 WT5      1255     TIP3     OH2      OT      -0.834000       15.9994           0
     54290 WT5      1255     TIP3     H1       HT       0.417000        1.0080           0
     54291 WT5      1255     TIP3     H2       HT       0.417000        1.0080           0
     54292 WT5      1256     TIP3     OH2      OT      -0.834000       15.9994           0
     54293 WT5      1256     TIP3     H1       HT       0.417000        1.0080           0
     54294 WT5      1256     TIP3     H2       HT       0.417000        1.0080           0
     54295 WT5      1257     TIP3     OH2      OT      -0.834000       15.9994           0
     54296 WT5      1257     TIP3     H1       HT       0.417000        1.0080           0
     54297 WT5      1257     TIP3     H2       HT       0.417000        1.0080           0
     54298 WT5      1258     TIP3     OH2      OT      -0.834000       15.9994           0
     54299 WT5      1258     TIP3     H1       HT       0.417000        1.0080           0
     54300 WT5      1258     TIP3     H2       HT       0.417000        1.0080           0
     54301 WT5      1259     TIP3     OH2      OT      -0.834000       15.9994           0
     54302 WT5      1259     TIP3     H1       HT       0.417000        1.0080           0
     54303 WT5      1259     TIP3     H2       HT       0.417000        1.0080           0
     54304 WT5      1261     TIP3     OH2      OT      -0.834000       15.9994           0
     54305 WT5      1261     TIP3     H1       HT       0.417000        1.0080           0
     54306 WT5      1261     TIP3     H2       HT       0.417000        1.0080           0
     54307 WT5      1262     TIP3     OH2      OT      -0.834000       15.9994           0
     54308 WT5      1262     TIP3     H1       HT       0.417000        1.0080           0
     54309 WT5      1262     TIP3     H2       HT       0.417000        1.0080           0
     54310 WT5      1263     TIP3     OH2      OT      -0.834000       15.9994           0
     54311 WT5      1263     TIP3     H1       HT       0.417000        1.0080           0
     54312 WT5      1263     TIP3     H2       HT       0.417000        1.0080           0
     54313 WT5      1264     TIP3     OH2      OT      -0.834000       15.9994           0
     54314 WT5      1264     TIP3     H1       HT       0.417000        1.0080           0
     54315 WT5      1264     TIP3     H2       HT       0.417000        1.0080           0
     54316 WT5      1265     TIP3     OH2      OT      -0.834000       15.9994           0
     54317 WT5      1265     TIP3     H1       HT       0.417000        1.0080           0
     54318 WT5      1265     TIP3     H2       HT       0.417000        1.0080           0
     54319 WT5      1266     TIP3     OH2      OT      -0.834000       15.9994           0
     54320 WT5      1266     TIP3     H1       HT       0.417000        1.0080           0
     54321 WT5      1266     TIP3     H2       HT       0.417000        1.0080           0
     54322 WT5      1267     TIP3     OH2      OT      -0.834000       15.9994           0
     54323 WT5      1267     TIP3     H1       HT       0.417000        1.0080           0
     54324 WT5      1267     TIP3     H2       HT       0.417000        1.0080           0
     54325 WT5      1269     TIP3     OH2      OT      -0.834000       15.9994           0
     54326 WT5      1269     TIP3     H1       HT       0.417000        1.0080           0
     54327 WT5      1269     TIP3     H2       HT       0.417000        1.0080           0
     54328 WT5      1270     TIP3     OH2      OT      -0.834000       15.9994           0
     54329 WT5      1270     TIP3     H1       HT       0.417000        1.0080           0
     54330 WT5      1270     TIP3     H2       HT       0.417000        1.0080           0
     54331 WT5      1271     TIP3     OH2      OT      -0.834000       15.9994           0
     54332 WT5      1271     TIP3     H1       HT       0.417000        1.0080           0
     54333 WT5      1271     TIP3     H2       HT       0.417000        1.0080           0
     54334 WT5      1272     TIP3     OH2      OT      -0.834000       15.9994           0
     54335 WT5      1272     TIP3     H1       HT       0.417000        1.0080           0
     54336 WT5      1272     TIP3     H2       HT       0.417000        1.0080           0
     54337 WT5      1273     TIP3     OH2      OT      -0.834000       15.9994           0
     54338 WT5      1273     TIP3     H1       HT       0.417000        1.0080           0
     54339 WT5      1273     TIP3     H2       HT       0.417000        1.0080           0
     54340 WT5      1274     TIP3     OH2      OT      -0.834000       15.9994           0
     54341 WT5      1274     TIP3     H1       HT       0.417000        1.0080           0
     54342 WT5      1274     TIP3     H2       HT       0.417000        1.0080           0
     54343 WT5      1275     TIP3     OH2      OT      -0.834000       15.9994           0
     54344 WT5      1275     TIP3     H1       HT       0.417000        1.0080           0
     54345 WT5      1275     TIP3     H2       HT       0.417000        1.0080           0
     54346 WT5      1277     TIP3     OH2      OT      -0.834000       15.9994           0
     54347 WT5      1277     TIP3     H1       HT       0.417000        1.0080           0
     54348 WT5      1277     TIP3     H2       HT       0.417000        1.0080           0
     54349 WT5      1278     TIP3     OH2      OT      -0.834000       15.9994           0
     54350 WT5      1278     TIP3     H1       HT       0.417000        1.0080           0
     54351 WT5      1278     TIP3     H2       HT       0.417000        1.0080           0
     54352 WT5      1280     TIP3     OH2      OT      -0.834000       15.9994           0
     54353 WT5      1280     TIP3     H1       HT       0.417000        1.0080           0
     54354 WT5      1280     TIP3     H2       HT       0.417000        1.0080           0
     54355 WT5      1281     TIP3     OH2      OT      -0.834000       15.9994           0
     54356 WT5      1281     TIP3     H1       HT       0.417000        1.0080           0
     54357 WT5      1281     TIP3     H2       HT       0.417000        1.0080           0
     54358 WT5      1284     TIP3     OH2      OT      -0.834000       15.9994           0
     54359 WT5      1284     TIP3     H1       HT       0.417000        1.0080           0
     54360 WT5      1284     TIP3     H2       HT       0.417000        1.0080           0
     54361 WT5      1285     TIP3     OH2      OT      -0.834000       15.9994           0
     54362 WT5      1285     TIP3     H1       HT       0.417000        1.0080           0
     54363 WT5      1285     TIP3     H2       HT       0.417000        1.0080           0
     54364 WT5      1287     TIP3     OH2      OT      -0.834000       15.9994           0
     54365 WT5      1287     TIP3     H1       HT       0.417000        1.0080           0
     54366 WT5      1287     TIP3     H2       HT       0.417000        1.0080           0
     54367 WT5      1289     TIP3     OH2      OT      -0.834000       15.9994           0
     54368 WT5      1289     TIP3     H1       HT       0.417000        1.0080           0
     54369 WT5      1289     TIP3     H2       HT       0.417000        1.0080           0
     54370 WT5      1290     TIP3     OH2      OT      -0.834000       15.9994           0
     54371 WT5      1290     TIP3     H1       HT       0.417000        1.0080           0
     54372 WT5      1290     TIP3     H2       HT       0.417000        1.0080           0
     54373 WT5      1291     TIP3     OH2      OT      -0.834000       15.9994           0
     54374 WT5      1291     TIP3     H1       HT       0.417000        1.0080           0
     54375 WT5      1291     TIP3     H2       HT       0.417000        1.0080           0
     54376 WT5      1293     TIP3     OH2      OT      -0.834000       15.9994           0
     54377 WT5      1293     TIP3     H1       HT       0.417000        1.0080           0
     54378 WT5      1293     TIP3     H2       HT       0.417000        1.0080           0
     54379 WT5      1294     TIP3     OH2      OT      -0.834000       15.9994           0
     54380 WT5      1294     TIP3     H1       HT       0.417000        1.0080           0
     54381 WT5      1294     TIP3     H2       HT       0.417000        1.0080           0
     54382 WT5      1295     TIP3     OH2      OT      -0.834000       15.9994           0
     54383 WT5      1295     TIP3     H1       HT       0.417000        1.0080           0
     54384 WT5      1295     TIP3     H2       HT       0.417000        1.0080           0
     54385 WT5      1297     TIP3     OH2      OT      -0.834000       15.9994           0
     54386 WT5      1297     TIP3     H1       HT       0.417000        1.0080           0
     54387 WT5      1297     TIP3     H2       HT       0.417000        1.0080           0
     54388 WT5      1298     TIP3     OH2      OT      -0.834000       15.9994           0
     54389 WT5      1298     TIP3     H1       HT       0.417000        1.0080           0
     54390 WT5      1298     TIP3     H2       HT       0.417000        1.0080           0
     54391 WT5      1300     TIP3     OH2      OT      -0.834000       15.9994           0
     54392 WT5      1300     TIP3     H1       HT       0.417000        1.0080           0
     54393 WT5      1300     TIP3     H2       HT       0.417000        1.0080           0
     54394 WT5      1301     TIP3     OH2      OT      -0.834000       15.9994           0
     54395 WT5      1301     TIP3     H1       HT       0.417000        1.0080           0
     54396 WT5      1301     TIP3     H2       HT       0.417000        1.0080           0
     54397 WT5      1302     TIP3     OH2      OT      -0.834000       15.9994           0
     54398 WT5      1302     TIP3     H1       HT       0.417000        1.0080           0
     54399 WT5      1302     TIP3     H2       HT       0.417000        1.0080           0
     54400 WT5      1303     TIP3     OH2      OT      -0.834000       15.9994           0
     54401 WT5      1303     TIP3     H1       HT       0.417000        1.0080           0
     54402 WT5      1303     TIP3     H2       HT       0.417000        1.0080           0
     54403 WT5      1306     TIP3     OH2      OT      -0.834000       15.9994           0
     54404 WT5      1306     TIP3     H1       HT       0.417000        1.0080           0
     54405 WT5      1306     TIP3     H2       HT       0.417000        1.0080           0
     54406 WT5      1307     TIP3     OH2      OT      -0.834000       15.9994           0
     54407 WT5      1307     TIP3     H1       HT       0.417000        1.0080           0
     54408 WT5      1307     TIP3     H2       HT       0.417000        1.0080           0
     54409 WT5      1308     TIP3     OH2      OT      -0.834000       15.9994           0
     54410 WT5      1308     TIP3     H1       HT       0.417000        1.0080           0
     54411 WT5      1308     TIP3     H2       HT       0.417000        1.0080           0
     54412 WT5      1311     TIP3     OH2      OT      -0.834000       15.9994           0
     54413 WT5      1311     TIP3     H1       HT       0.417000        1.0080           0
     54414 WT5      1311     TIP3     H2       HT       0.417000        1.0080           0
     54415 WT5      1312     TIP3     OH2      OT      -0.834000       15.9994           0
     54416 WT5      1312     TIP3     H1       HT       0.417000        1.0080           0
     54417 WT5      1312     TIP3     H2       HT       0.417000        1.0080           0
     54418 WT5      1313     TIP3     OH2      OT      -0.834000       15.9994           0
     54419 WT5      1313     TIP3     H1       HT       0.417000        1.0080           0
     54420 WT5      1313     TIP3     H2       HT       0.417000        1.0080           0
     54421 WT5      1315     TIP3     OH2      OT      -0.834000       15.9994           0
     54422 WT5      1315     TIP3     H1       HT       0.417000        1.0080           0
     54423 WT5      1315     TIP3     H2       HT       0.417000        1.0080           0
     54424 WT5      1316     TIP3     OH2      OT      -0.834000       15.9994           0
     54425 WT5      1316     TIP3     H1       HT       0.417000        1.0080           0
     54426 WT5      1316     TIP3     H2       HT       0.417000        1.0080           0
     54427 WT5      1317     TIP3     OH2      OT      -0.834000       15.9994           0
     54428 WT5      1317     TIP3     H1       HT       0.417000        1.0080           0
     54429 WT5      1317     TIP3     H2       HT       0.417000        1.0080           0
     54430 WT5      1318     TIP3     OH2      OT      -0.834000       15.9994           0
     54431 WT5      1318     TIP3     H1       HT       0.417000        1.0080           0
     54432 WT5      1318     TIP3     H2       HT       0.417000        1.0080           0
     54433 WT5      1320     TIP3     OH2      OT      -0.834000       15.9994           0
     54434 WT5      1320     TIP3     H1       HT       0.417000        1.0080           0
     54435 WT5      1320     TIP3     H2       HT       0.417000        1.0080           0
     54436 WT5      1321     TIP3     OH2      OT      -0.834000       15.9994           0
     54437 WT5      1321     TIP3     H1       HT       0.417000        1.0080           0
     54438 WT5      1321     TIP3     H2       HT       0.417000        1.0080           0
     54439 WT5      1323     TIP3     OH2      OT      -0.834000       15.9994           0
     54440 WT5      1323     TIP3     H1       HT       0.417000        1.0080           0
     54441 WT5      1323     TIP3     H2       HT       0.417000        1.0080           0
     54442 WT5      1324     TIP3     OH2      OT      -0.834000       15.9994           0
     54443 WT5      1324     TIP3     H1       HT       0.417000        1.0080           0
     54444 WT5      1324     TIP3     H2       HT       0.417000        1.0080           0
     54445 WT5      1325     TIP3     OH2      OT      -0.834000       15.9994           0
     54446 WT5      1325     TIP3     H1       HT       0.417000        1.0080           0
     54447 WT5      1325     TIP3     H2       HT       0.417000        1.0080           0
     54448 WT5      1326     TIP3     OH2      OT      -0.834000       15.9994           0
     54449 WT5      1326     TIP3     H1       HT       0.417000        1.0080           0
     54450 WT5      1326     TIP3     H2       HT       0.417000        1.0080           0
     54451 WT5      1327     TIP3     OH2      OT      -0.834000       15.9994           0
     54452 WT5      1327     TIP3     H1       HT       0.417000        1.0080           0
     54453 WT5      1327     TIP3     H2       HT       0.417000        1.0080           0
     54454 WT5      1328     TIP3     OH2      OT      -0.834000       15.9994           0
     54455 WT5      1328     TIP3     H1       HT       0.417000        1.0080           0
     54456 WT5      1328     TIP3     H2       HT       0.417000        1.0080           0
     54457 WT5      1329     TIP3     OH2      OT      -0.834000       15.9994           0
     54458 WT5      1329     TIP3     H1       HT       0.417000        1.0080           0
     54459 WT5      1329     TIP3     H2       HT       0.417000        1.0080           0
     54460 WT5      1330     TIP3     OH2      OT      -0.834000       15.9994           0
     54461 WT5      1330     TIP3     H1       HT       0.417000        1.0080           0
     54462 WT5      1330     TIP3     H2       HT       0.417000        1.0080           0
     54463 WT5      1332     TIP3     OH2      OT      -0.834000       15.9994           0
     54464 WT5      1332     TIP3     H1       HT       0.417000        1.0080           0
     54465 WT5      1332     TIP3     H2       HT       0.417000        1.0080           0
     54466 WT5      1333     TIP3     OH2      OT      -0.834000       15.9994           0
     54467 WT5      1333     TIP3     H1       HT       0.417000        1.0080           0
     54468 WT5      1333     TIP3     H2       HT       0.417000        1.0080           0
     54469 WT5      1334     TIP3     OH2      OT      -0.834000       15.9994           0
     54470 WT5      1334     TIP3     H1       HT       0.417000        1.0080           0
     54471 WT5      1334     TIP3     H2       HT       0.417000        1.0080           0
     54472 WT5      1335     TIP3     OH2      OT      -0.834000       15.9994           0
     54473 WT5      1335     TIP3     H1       HT       0.417000        1.0080           0
     54474 WT5      1335     TIP3     H2       HT       0.417000        1.0080           0
     54475 WT5      1336     TIP3     OH2      OT      -0.834000       15.9994           0
     54476 WT5      1336     TIP3     H1       HT       0.417000        1.0080           0
     54477 WT5      1336     TIP3     H2       HT       0.417000        1.0080           0
     54478 WT5      1337     TIP3     OH2      OT      -0.834000       15.9994           0
     54479 WT5      1337     TIP3     H1       HT       0.417000        1.0080           0
     54480 WT5      1337     TIP3     H2       HT       0.417000        1.0080           0
     54481 WT5      1338     TIP3     OH2      OT      -0.834000       15.9994           0
     54482 WT5      1338     TIP3     H1       HT       0.417000        1.0080           0
     54483 WT5      1338     TIP3     H2       HT       0.417000        1.0080           0
     54484 WT5      1340     TIP3     OH2      OT      -0.834000       15.9994           0
     54485 WT5      1340     TIP3     H1       HT       0.417000        1.0080           0
     54486 WT5      1340     TIP3     H2       HT       0.417000        1.0080           0
     54487 WT5      1342     TIP3     OH2      OT      -0.834000       15.9994           0
     54488 WT5      1342     TIP3     H1       HT       0.417000        1.0080           0
     54489 WT5      1342     TIP3     H2       HT       0.417000        1.0080           0
     54490 WT5      1343     TIP3     OH2      OT      -0.834000       15.9994           0
     54491 WT5      1343     TIP3     H1       HT       0.417000        1.0080           0
     54492 WT5      1343     TIP3     H2       HT       0.417000        1.0080           0
     54493 WT5      1344     TIP3     OH2      OT      -0.834000       15.9994           0
     54494 WT5      1344     TIP3     H1       HT       0.417000        1.0080           0
     54495 WT5      1344     TIP3     H2       HT       0.417000        1.0080           0
     54496 WT5      1345     TIP3     OH2      OT      -0.834000       15.9994           0
     54497 WT5      1345     TIP3     H1       HT       0.417000        1.0080           0
     54498 WT5      1345     TIP3     H2       HT       0.417000        1.0080           0
     54499 WT5      1346     TIP3     OH2      OT      -0.834000       15.9994           0
     54500 WT5      1346     TIP3     H1       HT       0.417000        1.0080           0
     54501 WT5      1346     TIP3     H2       HT       0.417000        1.0080           0
     54502 WT5      1347     TIP3     OH2      OT      -0.834000       15.9994           0
     54503 WT5      1347     TIP3     H1       HT       0.417000        1.0080           0
     54504 WT5      1347     TIP3     H2       HT       0.417000        1.0080           0
     54505 WT5      1348     TIP3     OH2      OT      -0.834000       15.9994           0
     54506 WT5      1348     TIP3     H1       HT       0.417000        1.0080           0
     54507 WT5      1348     TIP3     H2       HT       0.417000        1.0080           0
     54508 WT5      1349     TIP3     OH2      OT      -0.834000       15.9994           0
     54509 WT5      1349     TIP3     H1       HT       0.417000        1.0080           0
     54510 WT5      1349     TIP3     H2       HT       0.417000        1.0080           0
     54511 WT5      1352     TIP3     OH2      OT      -0.834000       15.9994           0
     54512 WT5      1352     TIP3     H1       HT       0.417000        1.0080           0
     54513 WT5      1352     TIP3     H2       HT       0.417000        1.0080           0
     54514 WT5      1353     TIP3     OH2      OT      -0.834000       15.9994           0
     54515 WT5      1353     TIP3     H1       HT       0.417000        1.0080           0
     54516 WT5      1353     TIP3     H2       HT       0.417000        1.0080           0
     54517 WT5      1354     TIP3     OH2      OT      -0.834000       15.9994           0
     54518 WT5      1354     TIP3     H1       HT       0.417000        1.0080           0
     54519 WT5      1354     TIP3     H2       HT       0.417000        1.0080           0
     54520 WT5      1355     TIP3     OH2      OT      -0.834000       15.9994           0
     54521 WT5      1355     TIP3     H1       HT       0.417000        1.0080           0
     54522 WT5      1355     TIP3     H2       HT       0.417000        1.0080           0
     54523 WT5      1356     TIP3     OH2      OT      -0.834000       15.9994           0
     54524 WT5      1356     TIP3     H1       HT       0.417000        1.0080           0
     54525 WT5      1356     TIP3     H2       HT       0.417000        1.0080           0
     54526 WT5      1357     TIP3     OH2      OT      -0.834000       15.9994           0
     54527 WT5      1357     TIP3     H1       HT       0.417000        1.0080           0
     54528 WT5      1357     TIP3     H2       HT       0.417000        1.0080           0
     54529 WT5      1358     TIP3     OH2      OT      -0.834000       15.9994           0
     54530 WT5      1358     TIP3     H1       HT       0.417000        1.0080           0
     54531 WT5      1358     TIP3     H2       HT       0.417000        1.0080           0
     54532 WT5      1359     TIP3     OH2      OT      -0.834000       15.9994           0
     54533 WT5      1359     TIP3     H1       HT       0.417000        1.0080           0
     54534 WT5      1359     TIP3     H2       HT       0.417000        1.0080           0
     54535 WT5      1361     TIP3     OH2      OT      -0.834000       15.9994           0
     54536 WT5      1361     TIP3     H1       HT       0.417000        1.0080           0
     54537 WT5      1361     TIP3     H2       HT       0.417000        1.0080           0
     54538 WT5      1362     TIP3     OH2      OT      -0.834000       15.9994           0
     54539 WT5      1362     TIP3     H1       HT       0.417000        1.0080           0
     54540 WT5      1362     TIP3     H2       HT       0.417000        1.0080           0
     54541 WT5      1364     TIP3     OH2      OT      -0.834000       15.9994           0
     54542 WT5      1364     TIP3     H1       HT       0.417000        1.0080           0
     54543 WT5      1364     TIP3     H2       HT       0.417000        1.0080           0
     54544 WT5      1365     TIP3     OH2      OT      -0.834000       15.9994           0
     54545 WT5      1365     TIP3     H1       HT       0.417000        1.0080           0
     54546 WT5      1365     TIP3     H2       HT       0.417000        1.0080           0
     54547 WT5      1366     TIP3     OH2      OT      -0.834000       15.9994           0
     54548 WT5      1366     TIP3     H1       HT       0.417000        1.0080           0
     54549 WT5      1366     TIP3     H2       HT       0.417000        1.0080           0
     54550 WT5      1367     TIP3     OH2      OT      -0.834000       15.9994           0
     54551 WT5      1367     TIP3     H1       HT       0.417000        1.0080           0
     54552 WT5      1367     TIP3     H2       HT       0.417000        1.0080           0
     54553 WT5      1368     TIP3     OH2      OT      -0.834000       15.9994           0
     54554 WT5      1368     TIP3     H1       HT       0.417000        1.0080           0
     54555 WT5      1368     TIP3     H2       HT       0.417000        1.0080           0
     54556 WT5      1370     TIP3     OH2      OT      -0.834000       15.9994           0
     54557 WT5      1370     TIP3     H1       HT       0.417000        1.0080           0
     54558 WT5      1370     TIP3     H2       HT       0.417000        1.0080           0
     54559 WT5      1371     TIP3     OH2      OT      -0.834000       15.9994           0
     54560 WT5      1371     TIP3     H1       HT       0.417000        1.0080           0
     54561 WT5      1371     TIP3     H2       HT       0.417000        1.0080           0
     54562 WT5      1372     TIP3     OH2      OT      -0.834000       15.9994           0
     54563 WT5      1372     TIP3     H1       HT       0.417000        1.0080           0
     54564 WT5      1372     TIP3     H2       HT       0.417000        1.0080           0
     54565 WT5      1373     TIP3     OH2      OT      -0.834000       15.9994           0
     54566 WT5      1373     TIP3     H1       HT       0.417000        1.0080           0
     54567 WT5      1373     TIP3     H2       HT       0.417000        1.0080           0
     54568 WT5      1374     TIP3     OH2      OT      -0.834000       15.9994           0
     54569 WT5      1374     TIP3     H1       HT       0.417000        1.0080           0
     54570 WT5      1374     TIP3     H2       HT       0.417000        1.0080           0
     54571 WT5      1376     TIP3     OH2      OT      -0.834000       15.9994           0
     54572 WT5      1376     TIP3     H1       HT       0.417000        1.0080           0
     54573 WT5      1376     TIP3     H2       HT       0.417000        1.0080           0
     54574 WT5      1378     TIP3     OH2      OT      -0.834000       15.9994           0
     54575 WT5      1378     TIP3     H1       HT       0.417000        1.0080           0
     54576 WT5      1378     TIP3     H2       HT       0.417000        1.0080           0
     54577 WT5      1379     TIP3     OH2      OT      -0.834000       15.9994           0
     54578 WT5      1379     TIP3     H1       HT       0.417000        1.0080           0
     54579 WT5      1379     TIP3     H2       HT       0.417000        1.0080           0
     54580 WT5      1380     TIP3     OH2      OT      -0.834000       15.9994           0
     54581 WT5      1380     TIP3     H1       HT       0.417000        1.0080           0
     54582 WT5      1380     TIP3     H2       HT       0.417000        1.0080           0
     54583 WT5      1381     TIP3     OH2      OT      -0.834000       15.9994           0
     54584 WT5      1381     TIP3     H1       HT       0.417000        1.0080           0
     54585 WT5      1381     TIP3     H2       HT       0.417000        1.0080           0
     54586 WT5      1382     TIP3     OH2      OT      -0.834000       15.9994           0
     54587 WT5      1382     TIP3     H1       HT       0.417000        1.0080           0
     54588 WT5      1382     TIP3     H2       HT       0.417000        1.0080           0
     54589 WT5      1383     TIP3     OH2      OT      -0.834000       15.9994           0
     54590 WT5      1383     TIP3     H1       HT       0.417000        1.0080           0
     54591 WT5      1383     TIP3     H2       HT       0.417000        1.0080           0
     54592 WT5      1384     TIP3     OH2      OT      -0.834000       15.9994           0
     54593 WT5      1384     TIP3     H1       HT       0.417000        1.0080           0
     54594 WT5      1384     TIP3     H2       HT       0.417000        1.0080           0
     54595 WT5      1385     TIP3     OH2      OT      -0.834000       15.9994           0
     54596 WT5      1385     TIP3     H1       HT       0.417000        1.0080           0
     54597 WT5      1385     TIP3     H2       HT       0.417000        1.0080           0
     54598 WT5      1387     TIP3     OH2      OT      -0.834000       15.9994           0
     54599 WT5      1387     TIP3     H1       HT       0.417000        1.0080           0
     54600 WT5      1387     TIP3     H2       HT       0.417000        1.0080           0
     54601 WT5      1388     TIP3     OH2      OT      -0.834000       15.9994           0
     54602 WT5      1388     TIP3     H1       HT       0.417000        1.0080           0
     54603 WT5      1388     TIP3     H2       HT       0.417000        1.0080           0
     54604 WT5      1389     TIP3     OH2      OT      -0.834000       15.9994           0
     54605 WT5      1389     TIP3     H1       HT       0.417000        1.0080           0
     54606 WT5      1389     TIP3     H2       HT       0.417000        1.0080           0
     54607 WT5      1391     TIP3     OH2      OT      -0.834000       15.9994           0
     54608 WT5      1391     TIP3     H1       HT       0.417000        1.0080           0
     54609 WT5      1391     TIP3     H2       HT       0.417000        1.0080           0
     54610 WT5      1392     TIP3     OH2      OT      -0.834000       15.9994           0
     54611 WT5      1392     TIP3     H1       HT       0.417000        1.0080           0
     54612 WT5      1392     TIP3     H2       HT       0.417000        1.0080           0
     54613 WT5      1394     TIP3     OH2      OT      -0.834000       15.9994           0
     54614 WT5      1394     TIP3     H1       HT       0.417000        1.0080           0
     54615 WT5      1394     TIP3     H2       HT       0.417000        1.0080           0
     54616 WT5      1395     TIP3     OH2      OT      -0.834000       15.9994           0
     54617 WT5      1395     TIP3     H1       HT       0.417000        1.0080           0
     54618 WT5      1395     TIP3     H2       HT       0.417000        1.0080           0
     54619 WT5      1396     TIP3     OH2      OT      -0.834000       15.9994           0
     54620 WT5      1396     TIP3     H1       HT       0.417000        1.0080           0
     54621 WT5      1396     TIP3     H2       HT       0.417000        1.0080           0
     54622 WT5      1398     TIP3     OH2      OT      -0.834000       15.9994           0
     54623 WT5      1398     TIP3     H1       HT       0.417000        1.0080           0
     54624 WT5      1398     TIP3     H2       HT       0.417000        1.0080           0
     54625 WT5      1399     TIP3     OH2      OT      -0.834000       15.9994           0
     54626 WT5      1399     TIP3     H1       HT       0.417000        1.0080           0
     54627 WT5      1399     TIP3     H2       HT       0.417000        1.0080           0
     54628 WT5      1400     TIP3     OH2      OT      -0.834000       15.9994           0
     54629 WT5      1400     TIP3     H1       HT       0.417000        1.0080           0
     54630 WT5      1400     TIP3     H2       HT       0.417000        1.0080           0
     54631 WT5      1401     TIP3     OH2      OT      -0.834000       15.9994           0
     54632 WT5      1401     TIP3     H1       HT       0.417000        1.0080           0
     54633 WT5      1401     TIP3     H2       HT       0.417000        1.0080           0
     54634 WT5      1402     TIP3     OH2      OT      -0.834000       15.9994           0
     54635 WT5      1402     TIP3     H1       HT       0.417000        1.0080           0
     54636 WT5      1402     TIP3     H2       HT       0.417000        1.0080           0
     54637 WT5      1404     TIP3     OH2      OT      -0.834000       15.9994           0
     54638 WT5      1404     TIP3     H1       HT       0.417000        1.0080           0
     54639 WT5      1404     TIP3     H2       HT       0.417000        1.0080           0
     54640 WT5      1405     TIP3     OH2      OT      -0.834000       15.9994           0
     54641 WT5      1405     TIP3     H1       HT       0.417000        1.0080           0
     54642 WT5      1405     TIP3     H2       HT       0.417000        1.0080           0
     54643 WT5      1407     TIP3     OH2      OT      -0.834000       15.9994           0
     54644 WT5      1407     TIP3     H1       HT       0.417000        1.0080           0
     54645 WT5      1407     TIP3     H2       HT       0.417000        1.0080           0
     54646 WT5      1408     TIP3     OH2      OT      -0.834000       15.9994           0
     54647 WT5      1408     TIP3     H1       HT       0.417000        1.0080           0
     54648 WT5      1408     TIP3     H2       HT       0.417000        1.0080           0
     54649 WT5      1409     TIP3     OH2      OT      -0.834000       15.9994           0
     54650 WT5      1409     TIP3     H1       HT       0.417000        1.0080           0
     54651 WT5      1409     TIP3     H2       HT       0.417000        1.0080           0
     54652 WT5      1410     TIP3     OH2      OT      -0.834000       15.9994           0
     54653 WT5      1410     TIP3     H1       HT       0.417000        1.0080           0
     54654 WT5      1410     TIP3     H2       HT       0.417000        1.0080           0
     54655 WT5      1411     TIP3     OH2      OT      -0.834000       15.9994           0
     54656 WT5      1411     TIP3     H1       HT       0.417000        1.0080           0
     54657 WT5      1411     TIP3     H2       HT       0.417000        1.0080           0
     54658 WT5      1412     TIP3     OH2      OT      -0.834000       15.9994           0
     54659 WT5      1412     TIP3     H1       HT       0.417000        1.0080           0
     54660 WT5      1412     TIP3     H2       HT       0.417000        1.0080           0
     54661 WT5      1413     TIP3     OH2      OT      -0.834000       15.9994           0
     54662 WT5      1413     TIP3     H1       HT       0.417000        1.0080           0
     54663 WT5      1413     TIP3     H2       HT       0.417000        1.0080           0
     54664 WT5      1414     TIP3     OH2      OT      -0.834000       15.9994           0
     54665 WT5      1414     TIP3     H1       HT       0.417000        1.0080           0
     54666 WT5      1414     TIP3     H2       HT       0.417000        1.0080           0
     54667 WT5      1415     TIP3     OH2      OT      -0.834000       15.9994           0
     54668 WT5      1415     TIP3     H1       HT       0.417000        1.0080           0
     54669 WT5      1415     TIP3     H2       HT       0.417000        1.0080           0
     54670 WT5      1416     TIP3     OH2      OT      -0.834000       15.9994           0
     54671 WT5      1416     TIP3     H1       HT       0.417000        1.0080           0
     54672 WT5      1416     TIP3     H2       HT       0.417000        1.0080           0
     54673 WT5      1417     TIP3     OH2      OT      -0.834000       15.9994           0
     54674 WT5      1417     TIP3     H1       HT       0.417000        1.0080           0
     54675 WT5      1417     TIP3     H2       HT       0.417000        1.0080           0
     54676 WT5      1418     TIP3     OH2      OT      -0.834000       15.9994           0
     54677 WT5      1418     TIP3     H1       HT       0.417000        1.0080           0
     54678 WT5      1418     TIP3     H2       HT       0.417000        1.0080           0
     54679 WT5      1419     TIP3     OH2      OT      -0.834000       15.9994           0
     54680 WT5      1419     TIP3     H1       HT       0.417000        1.0080           0
     54681 WT5      1419     TIP3     H2       HT       0.417000        1.0080           0
     54682 WT5      1420     TIP3     OH2      OT      -0.834000       15.9994           0
     54683 WT5      1420     TIP3     H1       HT       0.417000        1.0080           0
     54684 WT5      1420     TIP3     H2       HT       0.417000        1.0080           0
     54685 WT5      1421     TIP3     OH2      OT      -0.834000       15.9994           0
     54686 WT5      1421     TIP3     H1       HT       0.417000        1.0080           0
     54687 WT5      1421     TIP3     H2       HT       0.417000        1.0080           0
     54688 WT5      1424     TIP3     OH2      OT      -0.834000       15.9994           0
     54689 WT5      1424     TIP3     H1       HT       0.417000        1.0080           0
     54690 WT5      1424     TIP3     H2       HT       0.417000        1.0080           0
     54691 WT5      1426     TIP3     OH2      OT      -0.834000       15.9994           0
     54692 WT5      1426     TIP3     H1       HT       0.417000        1.0080           0
     54693 WT5      1426     TIP3     H2       HT       0.417000        1.0080           0
     54694 WT5      1428     TIP3     OH2      OT      -0.834000       15.9994           0
     54695 WT5      1428     TIP3     H1       HT       0.417000        1.0080           0
     54696 WT5      1428     TIP3     H2       HT       0.417000        1.0080           0
     54697 WT5      1429     TIP3     OH2      OT      -0.834000       15.9994           0
     54698 WT5      1429     TIP3     H1       HT       0.417000        1.0080           0
     54699 WT5      1429     TIP3     H2       HT       0.417000        1.0080           0
     54700 WT5      1430     TIP3     OH2      OT      -0.834000       15.9994           0
     54701 WT5      1430     TIP3     H1       HT       0.417000        1.0080           0
     54702 WT5      1430     TIP3     H2       HT       0.417000        1.0080           0
     54703 WT5      1432     TIP3     OH2      OT      -0.834000       15.9994           0
     54704 WT5      1432     TIP3     H1       HT       0.417000        1.0080           0
     54705 WT5      1432     TIP3     H2       HT       0.417000        1.0080           0
     54706 WT5      1433     TIP3     OH2      OT      -0.834000       15.9994           0
     54707 WT5      1433     TIP3     H1       HT       0.417000        1.0080           0
     54708 WT5      1433     TIP3     H2       HT       0.417000        1.0080           0
     54709 WT5      1435     TIP3     OH2      OT      -0.834000       15.9994           0
     54710 WT5      1435     TIP3     H1       HT       0.417000        1.0080           0
     54711 WT5      1435     TIP3     H2       HT       0.417000        1.0080           0
     54712 WT5      1436     TIP3     OH2      OT      -0.834000       15.9994           0
     54713 WT5      1436     TIP3     H1       HT       0.417000        1.0080           0
     54714 WT5      1436     TIP3     H2       HT       0.417000        1.0080           0
     54715 WT5      1437     TIP3     OH2      OT      -0.834000       15.9994           0
     54716 WT5      1437     TIP3     H1       HT       0.417000        1.0080           0
     54717 WT5      1437     TIP3     H2       HT       0.417000        1.0080           0
     54718 WT5      1439     TIP3     OH2      OT      -0.834000       15.9994           0
     54719 WT5      1439     TIP3     H1       HT       0.417000        1.0080           0
     54720 WT5      1439     TIP3     H2       HT       0.417000        1.0080           0
     54721 WT5      1440     TIP3     OH2      OT      -0.834000       15.9994           0
     54722 WT5      1440     TIP3     H1       HT       0.417000        1.0080           0
     54723 WT5      1440     TIP3     H2       HT       0.417000        1.0080           0
     54724 WT5      1442     TIP3     OH2      OT      -0.834000       15.9994           0
     54725 WT5      1442     TIP3     H1       HT       0.417000        1.0080           0
     54726 WT5      1442     TIP3     H2       HT       0.417000        1.0080           0
     54727 WT5      1443     TIP3     OH2      OT      -0.834000       15.9994           0
     54728 WT5      1443     TIP3     H1       HT       0.417000        1.0080           0
     54729 WT5      1443     TIP3     H2       HT       0.417000        1.0080           0
     54730 WT5      1444     TIP3     OH2      OT      -0.834000       15.9994           0
     54731 WT5      1444     TIP3     H1       HT       0.417000        1.0080           0
     54732 WT5      1444     TIP3     H2       HT       0.417000        1.0080           0
     54733 WT5      1445     TIP3     OH2      OT      -0.834000       15.9994           0
     54734 WT5      1445     TIP3     H1       HT       0.417000        1.0080           0
     54735 WT5      1445     TIP3     H2       HT       0.417000        1.0080           0
     54736 WT5      1446     TIP3     OH2      OT      -0.834000       15.9994           0
     54737 WT5      1446     TIP3     H1       HT       0.417000        1.0080           0
     54738 WT5      1446     TIP3     H2       HT       0.417000        1.0080           0
     54739 WT5      1447     TIP3     OH2      OT      -0.834000       15.9994           0
     54740 WT5      1447     TIP3     H1       HT       0.417000        1.0080           0
     54741 WT5      1447     TIP3     H2       HT       0.417000        1.0080           0
     54742 WT5      1448     TIP3     OH2      OT      -0.834000       15.9994           0
     54743 WT5      1448     TIP3     H1       HT       0.417000        1.0080           0
     54744 WT5      1448     TIP3     H2       HT       0.417000        1.0080           0
     54745 WT5      1449     TIP3     OH2      OT      -0.834000       15.9994           0
     54746 WT5      1449     TIP3     H1       HT       0.417000        1.0080           0
     54747 WT5      1449     TIP3     H2       HT       0.417000        1.0080           0
     54748 WT5      1450     TIP3     OH2      OT      -0.834000       15.9994           0
     54749 WT5      1450     TIP3     H1       HT       0.417000        1.0080           0
     54750 WT5      1450     TIP3     H2       HT       0.417000        1.0080           0
     54751 WT5      1451     TIP3     OH2      OT      -0.834000       15.9994           0
     54752 WT5      1451     TIP3     H1       HT       0.417000        1.0080           0
     54753 WT5      1451     TIP3     H2       HT       0.417000        1.0080           0
     54754 WT5      1453     TIP3     OH2      OT      -0.834000       15.9994           0
     54755 WT5      1453     TIP3     H1       HT       0.417000        1.0080           0
     54756 WT5      1453     TIP3     H2       HT       0.417000        1.0080           0
     54757 WT5      1454     TIP3     OH2      OT      -0.834000       15.9994           0
     54758 WT5      1454     TIP3     H1       HT       0.417000        1.0080           0
     54759 WT5      1454     TIP3     H2       HT       0.417000        1.0080           0
     54760 WT5      1455     TIP3     OH2      OT      -0.834000       15.9994           0
     54761 WT5      1455     TIP3     H1       HT       0.417000        1.0080           0
     54762 WT5      1455     TIP3     H2       HT       0.417000        1.0080           0
     54763 WT5      1456     TIP3     OH2      OT      -0.834000       15.9994           0
     54764 WT5      1456     TIP3     H1       HT       0.417000        1.0080           0
     54765 WT5      1456     TIP3     H2       HT       0.417000        1.0080           0
     54766 WT5      1457     TIP3     OH2      OT      -0.834000       15.9994           0
     54767 WT5      1457     TIP3     H1       HT       0.417000        1.0080           0
     54768 WT5      1457     TIP3     H2       HT       0.417000        1.0080           0
     54769 WT5      1458     TIP3     OH2      OT      -0.834000       15.9994           0
     54770 WT5      1458     TIP3     H1       HT       0.417000        1.0080           0
     54771 WT5      1458     TIP3     H2       HT       0.417000        1.0080           0
     54772 WT5      1459     TIP3     OH2      OT      -0.834000       15.9994           0
     54773 WT5      1459     TIP3     H1       HT       0.417000        1.0080           0
     54774 WT5      1459     TIP3     H2       HT       0.417000        1.0080           0
     54775 WT5      1460     TIP3     OH2      OT      -0.834000       15.9994           0
     54776 WT5      1460     TIP3     H1       HT       0.417000        1.0080           0
     54777 WT5      1460     TIP3     H2       HT       0.417000        1.0080           0
     54778 WT5      1461     TIP3     OH2      OT      -0.834000       15.9994           0
     54779 WT5      1461     TIP3     H1       HT       0.417000        1.0080           0
     54780 WT5      1461     TIP3     H2       HT       0.417000        1.0080           0
     54781 WT5      1462     TIP3     OH2      OT      -0.834000       15.9994           0
     54782 WT5      1462     TIP3     H1       HT       0.417000        1.0080           0
     54783 WT5      1462     TIP3     H2       HT       0.417000        1.0080           0
     54784 WT5      1463     TIP3     OH2      OT      -0.834000       15.9994           0
     54785 WT5      1463     TIP3     H1       HT       0.417000        1.0080           0
     54786 WT5      1463     TIP3     H2       HT       0.417000        1.0080           0
     54787 WT5      1464     TIP3     OH2      OT      -0.834000       15.9994           0
     54788 WT5      1464     TIP3     H1       HT       0.417000        1.0080           0
     54789 WT5      1464     TIP3     H2       HT       0.417000        1.0080           0
     54790 WT5      1465     TIP3     OH2      OT      -0.834000       15.9994           0
     54791 WT5      1465     TIP3     H1       HT       0.417000        1.0080           0
     54792 WT5      1465     TIP3     H2       HT       0.417000        1.0080           0
     54793 WT5      1466     TIP3     OH2      OT      -0.834000       15.9994           0
     54794 WT5      1466     TIP3     H1       HT       0.417000        1.0080           0
     54795 WT5      1466     TIP3     H2       HT       0.417000        1.0080           0
     54796 WT5      1467     TIP3     OH2      OT      -0.834000       15.9994           0
     54797 WT5      1467     TIP3     H1       HT       0.417000        1.0080           0
     54798 WT5      1467     TIP3     H2       HT       0.417000        1.0080           0
     54799 WT5      1468     TIP3     OH2      OT      -0.834000       15.9994           0
     54800 WT5      1468     TIP3     H1       HT       0.417000        1.0080           0
     54801 WT5      1468     TIP3     H2       HT       0.417000        1.0080           0
     54802 WT5      1469     TIP3     OH2      OT      -0.834000       15.9994           0
     54803 WT5      1469     TIP3     H1       HT       0.417000        1.0080           0
     54804 WT5      1469     TIP3     H2       HT       0.417000        1.0080           0
     54805 WT5      1470     TIP3     OH2      OT      -0.834000       15.9994           0
     54806 WT5      1470     TIP3     H1       HT       0.417000        1.0080           0
     54807 WT5      1470     TIP3     H2       HT       0.417000        1.0080           0
     54808 WT5      1471     TIP3     OH2      OT      -0.834000       15.9994           0
     54809 WT5      1471     TIP3     H1       HT       0.417000        1.0080           0
     54810 WT5      1471     TIP3     H2       HT       0.417000        1.0080           0
     54811 WT5      1472     TIP3     OH2      OT      -0.834000       15.9994           0
     54812 WT5      1472     TIP3     H1       HT       0.417000        1.0080           0
     54813 WT5      1472     TIP3     H2       HT       0.417000        1.0080           0
     54814 WT5      1473     TIP3     OH2      OT      -0.834000       15.9994           0
     54815 WT5      1473     TIP3     H1       HT       0.417000        1.0080           0
     54816 WT5      1473     TIP3     H2       HT       0.417000        1.0080           0
     54817 WT5      1474     TIP3     OH2      OT      -0.834000       15.9994           0
     54818 WT5      1474     TIP3     H1       HT       0.417000        1.0080           0
     54819 WT5      1474     TIP3     H2       HT       0.417000        1.0080           0
     54820 WT5      1475     TIP3     OH2      OT      -0.834000       15.9994           0
     54821 WT5      1475     TIP3     H1       HT       0.417000        1.0080           0
     54822 WT5      1475     TIP3     H2       HT       0.417000        1.0080           0
     54823 WT5      1476     TIP3     OH2      OT      -0.834000       15.9994           0
     54824 WT5      1476     TIP3     H1       HT       0.417000        1.0080           0
     54825 WT5      1476     TIP3     H2       HT       0.417000        1.0080           0
     54826 WT5      1477     TIP3     OH2      OT      -0.834000       15.9994           0
     54827 WT5      1477     TIP3     H1       HT       0.417000        1.0080           0
     54828 WT5      1477     TIP3     H2       HT       0.417000        1.0080           0
     54829 WT5      1478     TIP3     OH2      OT      -0.834000       15.9994           0
     54830 WT5      1478     TIP3     H1       HT       0.417000        1.0080           0
     54831 WT5      1478     TIP3     H2       HT       0.417000        1.0080           0
     54832 WT5      1479     TIP3     OH2      OT      -0.834000       15.9994           0
     54833 WT5      1479     TIP3     H1       HT       0.417000        1.0080           0
     54834 WT5      1479     TIP3     H2       HT       0.417000        1.0080           0
     54835 WT5      1480     TIP3     OH2      OT      -0.834000       15.9994           0
     54836 WT5      1480     TIP3     H1       HT       0.417000        1.0080           0
     54837 WT5      1480     TIP3     H2       HT       0.417000        1.0080           0
     54838 WT5      1481     TIP3     OH2      OT      -0.834000       15.9994           0
     54839 WT5      1481     TIP3     H1       HT       0.417000        1.0080           0
     54840 WT5      1481     TIP3     H2       HT       0.417000        1.0080           0
     54841 WT5      1484     TIP3     OH2      OT      -0.834000       15.9994           0
     54842 WT5      1484     TIP3     H1       HT       0.417000        1.0080           0
     54843 WT5      1484     TIP3     H2       HT       0.417000        1.0080           0
     54844 WT5      1485     TIP3     OH2      OT      -0.834000       15.9994           0
     54845 WT5      1485     TIP3     H1       HT       0.417000        1.0080           0
     54846 WT5      1485     TIP3     H2       HT       0.417000        1.0080           0
     54847 WT5      1486     TIP3     OH2      OT      -0.834000       15.9994           0
     54848 WT5      1486     TIP3     H1       HT       0.417000        1.0080           0
     54849 WT5      1486     TIP3     H2       HT       0.417000        1.0080           0
     54850 WT5      1487     TIP3     OH2      OT      -0.834000       15.9994           0
     54851 WT5      1487     TIP3     H1       HT       0.417000        1.0080           0
     54852 WT5      1487     TIP3     H2       HT       0.417000        1.0080           0
     54853 WT5      1488     TIP3     OH2      OT      -0.834000       15.9994           0
     54854 WT5      1488     TIP3     H1       HT       0.417000        1.0080           0
     54855 WT5      1488     TIP3     H2       HT       0.417000        1.0080           0
     54856 WT5      1489     TIP3     OH2      OT      -0.834000       15.9994           0
     54857 WT5      1489     TIP3     H1       HT       0.417000        1.0080           0
     54858 WT5      1489     TIP3     H2       HT       0.417000        1.0080           0
     54859 WT5      1490     TIP3     OH2      OT      -0.834000       15.9994           0
     54860 WT5      1490     TIP3     H1       HT       0.417000        1.0080           0
     54861 WT5      1490     TIP3     H2       HT       0.417000        1.0080           0
     54862 WT5      1491     TIP3     OH2      OT      -0.834000       15.9994           0
     54863 WT5      1491     TIP3     H1       HT       0.417000        1.0080           0
     54864 WT5      1491     TIP3     H2       HT       0.417000        1.0080           0
     54865 WT5      1492     TIP3     OH2      OT      -0.834000       15.9994           0
     54866 WT5      1492     TIP3     H1       HT       0.417000        1.0080           0
     54867 WT5      1492     TIP3     H2       HT       0.417000        1.0080           0
     54868 WT5      1493     TIP3     OH2      OT      -0.834000       15.9994           0
     54869 WT5      1493     TIP3     H1       HT       0.417000        1.0080           0
     54870 WT5      1493     TIP3     H2       HT       0.417000        1.0080           0
     54871 WT5      1494     TIP3     OH2      OT      -0.834000       15.9994           0
     54872 WT5      1494     TIP3     H1       HT       0.417000        1.0080           0
     54873 WT5      1494     TIP3     H2       HT       0.417000        1.0080           0
     54874 WT5      1497     TIP3     OH2      OT      -0.834000       15.9994           0
     54875 WT5      1497     TIP3     H1       HT       0.417000        1.0080           0
     54876 WT5      1497     TIP3     H2       HT       0.417000        1.0080           0
     54877 WT5      1498     TIP3     OH2      OT      -0.834000       15.9994           0
     54878 WT5      1498     TIP3     H1       HT       0.417000        1.0080           0
     54879 WT5      1498     TIP3     H2       HT       0.417000        1.0080           0
     54880 WT5      1499     TIP3     OH2      OT      -0.834000       15.9994           0
     54881 WT5      1499     TIP3     H1       HT       0.417000        1.0080           0
     54882 WT5      1499     TIP3     H2       HT       0.417000        1.0080           0
     54883 WT5      1500     TIP3     OH2      OT      -0.834000       15.9994           0
     54884 WT5      1500     TIP3     H1       HT       0.417000        1.0080           0
     54885 WT5      1500     TIP3     H2       HT       0.417000        1.0080           0
     54886 WT5      1501     TIP3     OH2      OT      -0.834000       15.9994           0
     54887 WT5      1501     TIP3     H1       HT       0.417000        1.0080           0
     54888 WT5      1501     TIP3     H2       HT       0.417000        1.0080           0
     54889 WT5      1502     TIP3     OH2      OT      -0.834000       15.9994           0
     54890 WT5      1502     TIP3     H1       HT       0.417000        1.0080           0
     54891 WT5      1502     TIP3     H2       HT       0.417000        1.0080           0
     54892 WT5      1504     TIP3     OH2      OT      -0.834000       15.9994           0
     54893 WT5      1504     TIP3     H1       HT       0.417000        1.0080           0
     54894 WT5      1504     TIP3     H2       HT       0.417000        1.0080           0
     54895 WT5      1505     TIP3     OH2      OT      -0.834000       15.9994           0
     54896 WT5      1505     TIP3     H1       HT       0.417000        1.0080           0
     54897 WT5      1505     TIP3     H2       HT       0.417000        1.0080           0
     54898 WT5      1506     TIP3     OH2      OT      -0.834000       15.9994           0
     54899 WT5      1506     TIP3     H1       HT       0.417000        1.0080           0
     54900 WT5      1506     TIP3     H2       HT       0.417000        1.0080           0
     54901 WT5      1507     TIP3     OH2      OT      -0.834000       15.9994           0
     54902 WT5      1507     TIP3     H1       HT       0.417000        1.0080           0
     54903 WT5      1507     TIP3     H2       HT       0.417000        1.0080           0
     54904 WT5      1508     TIP3     OH2      OT      -0.834000       15.9994           0
     54905 WT5      1508     TIP3     H1       HT       0.417000        1.0080           0
     54906 WT5      1508     TIP3     H2       HT       0.417000        1.0080           0
     54907 WT5      1509     TIP3     OH2      OT      -0.834000       15.9994           0
     54908 WT5      1509     TIP3     H1       HT       0.417000        1.0080           0
     54909 WT5      1509     TIP3     H2       HT       0.417000        1.0080           0
     54910 WT5      1511     TIP3     OH2      OT      -0.834000       15.9994           0
     54911 WT5      1511     TIP3     H1       HT       0.417000        1.0080           0
     54912 WT5      1511     TIP3     H2       HT       0.417000        1.0080           0
     54913 WT5      1512     TIP3     OH2      OT      -0.834000       15.9994           0
     54914 WT5      1512     TIP3     H1       HT       0.417000        1.0080           0
     54915 WT5      1512     TIP3     H2       HT       0.417000        1.0080           0
     54916 WT5      1513     TIP3     OH2      OT      -0.834000       15.9994           0
     54917 WT5      1513     TIP3     H1       HT       0.417000        1.0080           0
     54918 WT5      1513     TIP3     H2       HT       0.417000        1.0080           0
     54919 WT5      1514     TIP3     OH2      OT      -0.834000       15.9994           0
     54920 WT5      1514     TIP3     H1       HT       0.417000        1.0080           0
     54921 WT5      1514     TIP3     H2       HT       0.417000        1.0080           0
     54922 WT5      1515     TIP3     OH2      OT      -0.834000       15.9994           0
     54923 WT5      1515     TIP3     H1       HT       0.417000        1.0080           0
     54924 WT5      1515     TIP3     H2       HT       0.417000        1.0080           0
     54925 WT5      1516     TIP3     OH2      OT      -0.834000       15.9994           0
     54926 WT5      1516     TIP3     H1       HT       0.417000        1.0080           0
     54927 WT5      1516     TIP3     H2       HT       0.417000        1.0080           0
     54928 WT5      1518     TIP3     OH2      OT      -0.834000       15.9994           0
     54929 WT5      1518     TIP3     H1       HT       0.417000        1.0080           0
     54930 WT5      1518     TIP3     H2       HT       0.417000        1.0080           0
     54931 WT5      1519     TIP3     OH2      OT      -0.834000       15.9994           0
     54932 WT5      1519     TIP3     H1       HT       0.417000        1.0080           0
     54933 WT5      1519     TIP3     H2       HT       0.417000        1.0080           0
     54934 WT5      1520     TIP3     OH2      OT      -0.834000       15.9994           0
     54935 WT5      1520     TIP3     H1       HT       0.417000        1.0080           0
     54936 WT5      1520     TIP3     H2       HT       0.417000        1.0080           0
     54937 WT5      1522     TIP3     OH2      OT      -0.834000       15.9994           0
     54938 WT5      1522     TIP3     H1       HT       0.417000        1.0080           0
     54939 WT5      1522     TIP3     H2       HT       0.417000        1.0080           0
     54940 WT5      1523     TIP3     OH2      OT      -0.834000       15.9994           0
     54941 WT5      1523     TIP3     H1       HT       0.417000        1.0080           0
     54942 WT5      1523     TIP3     H2       HT       0.417000        1.0080           0
     54943 WT5      1524     TIP3     OH2      OT      -0.834000       15.9994           0
     54944 WT5      1524     TIP3     H1       HT       0.417000        1.0080           0
     54945 WT5      1524     TIP3     H2       HT       0.417000        1.0080           0
     54946 WT5      1527     TIP3     OH2      OT      -0.834000       15.9994           0
     54947 WT5      1527     TIP3     H1       HT       0.417000        1.0080           0
     54948 WT5      1527     TIP3     H2       HT       0.417000        1.0080           0
     54949 WT5      1528     TIP3     OH2      OT      -0.834000       15.9994           0
     54950 WT5      1528     TIP3     H1       HT       0.417000        1.0080           0
     54951 WT5      1528     TIP3     H2       HT       0.417000        1.0080           0
     54952 WT5      1530     TIP3     OH2      OT      -0.834000       15.9994           0
     54953 WT5      1530     TIP3     H1       HT       0.417000        1.0080           0
     54954 WT5      1530     TIP3     H2       HT       0.417000        1.0080           0
     54955 WT5      1531     TIP3     OH2      OT      -0.834000       15.9994           0
     54956 WT5      1531     TIP3     H1       HT       0.417000        1.0080           0
     54957 WT5      1531     TIP3     H2       HT       0.417000        1.0080           0
     54958 WT5      1532     TIP3     OH2      OT      -0.834000       15.9994           0
     54959 WT5      1532     TIP3     H1       HT       0.417000        1.0080           0
     54960 WT5      1532     TIP3     H2       HT       0.417000        1.0080           0
     54961 WT5      1533     TIP3     OH2      OT      -0.834000       15.9994           0
     54962 WT5      1533     TIP3     H1       HT       0.417000        1.0080           0
     54963 WT5      1533     TIP3     H2       HT       0.417000        1.0080           0
     54964 WT5      1534     TIP3     OH2      OT      -0.834000       15.9994           0
     54965 WT5      1534     TIP3     H1       HT       0.417000        1.0080           0
     54966 WT5      1534     TIP3     H2       HT       0.417000        1.0080           0
     54967 WT5      1536     TIP3     OH2      OT      -0.834000       15.9994           0
     54968 WT5      1536     TIP3     H1       HT       0.417000        1.0080           0
     54969 WT5      1536     TIP3     H2       HT       0.417000        1.0080           0
     54970 WT5      1537     TIP3     OH2      OT      -0.834000       15.9994           0
     54971 WT5      1537     TIP3     H1       HT       0.417000        1.0080           0
     54972 WT5      1537     TIP3     H2       HT       0.417000        1.0080           0
     54973 WT5      1538     TIP3     OH2      OT      -0.834000       15.9994           0
     54974 WT5      1538     TIP3     H1       HT       0.417000        1.0080           0
     54975 WT5      1538     TIP3     H2       HT       0.417000        1.0080           0
     54976 WT5      1540     TIP3     OH2      OT      -0.834000       15.9994           0
     54977 WT5      1540     TIP3     H1       HT       0.417000        1.0080           0
     54978 WT5      1540     TIP3     H2       HT       0.417000        1.0080           0
     54979 WT5      1542     TIP3     OH2      OT      -0.834000       15.9994           0
     54980 WT5      1542     TIP3     H1       HT       0.417000        1.0080           0
     54981 WT5      1542     TIP3     H2       HT       0.417000        1.0080           0
     54982 WT5      1544     TIP3     OH2      OT      -0.834000       15.9994           0
     54983 WT5      1544     TIP3     H1       HT       0.417000        1.0080           0
     54984 WT5      1544     TIP3     H2       HT       0.417000        1.0080           0
     54985 WT5      1545     TIP3     OH2      OT      -0.834000       15.9994           0
     54986 WT5      1545     TIP3     H1       HT       0.417000        1.0080           0
     54987 WT5      1545     TIP3     H2       HT       0.417000        1.0080           0
     54988 WT5      1546     TIP3     OH2      OT      -0.834000       15.9994           0
     54989 WT5      1546     TIP3     H1       HT       0.417000        1.0080           0
     54990 WT5      1546     TIP3     H2       HT       0.417000        1.0080           0
     54991 WT5      1548     TIP3     OH2      OT      -0.834000       15.9994           0
     54992 WT5      1548     TIP3     H1       HT       0.417000        1.0080           0
     54993 WT5      1548     TIP3     H2       HT       0.417000        1.0080           0
     54994 WT5      1549     TIP3     OH2      OT      -0.834000       15.9994           0
     54995 WT5      1549     TIP3     H1       HT       0.417000        1.0080           0
     54996 WT5      1549     TIP3     H2       HT       0.417000        1.0080           0
     54997 WT5      1550     TIP3     OH2      OT      -0.834000       15.9994           0
     54998 WT5      1550     TIP3     H1       HT       0.417000        1.0080           0
     54999 WT5      1550     TIP3     H2       HT       0.417000        1.0080           0
     55000 WT5      1552     TIP3     OH2      OT      -0.834000       15.9994           0
     55001 WT5      1552     TIP3     H1       HT       0.417000        1.0080           0
     55002 WT5      1552     TIP3     H2       HT       0.417000        1.0080           0
     55003 WT5      1553     TIP3     OH2      OT      -0.834000       15.9994           0
     55004 WT5      1553     TIP3     H1       HT       0.417000        1.0080           0
     55005 WT5      1553     TIP3     H2       HT       0.417000        1.0080           0
     55006 WT5      1554     TIP3     OH2      OT      -0.834000       15.9994           0
     55007 WT5      1554     TIP3     H1       HT       0.417000        1.0080           0
     55008 WT5      1554     TIP3     H2       HT       0.417000        1.0080           0
     55009 WT5      1555     TIP3     OH2      OT      -0.834000       15.9994           0
     55010 WT5      1555     TIP3     H1       HT       0.417000        1.0080           0
     55011 WT5      1555     TIP3     H2       HT       0.417000        1.0080           0
     55012 WT5      1557     TIP3     OH2      OT      -0.834000       15.9994           0
     55013 WT5      1557     TIP3     H1       HT       0.417000        1.0080           0
     55014 WT5      1557     TIP3     H2       HT       0.417000        1.0080           0
     55015 WT5      1559     TIP3     OH2      OT      -0.834000       15.9994           0
     55016 WT5      1559     TIP3     H1       HT       0.417000        1.0080           0
     55017 WT5      1559     TIP3     H2       HT       0.417000        1.0080           0
     55018 WT5      1560     TIP3     OH2      OT      -0.834000       15.9994           0
     55019 WT5      1560     TIP3     H1       HT       0.417000        1.0080           0
     55020 WT5      1560     TIP3     H2       HT       0.417000        1.0080           0
     55021 WT5      1562     TIP3     OH2      OT      -0.834000       15.9994           0
     55022 WT5      1562     TIP3     H1       HT       0.417000        1.0080           0
     55023 WT5      1562     TIP3     H2       HT       0.417000        1.0080           0
     55024 WT5      1563     TIP3     OH2      OT      -0.834000       15.9994           0
     55025 WT5      1563     TIP3     H1       HT       0.417000        1.0080           0
     55026 WT5      1563     TIP3     H2       HT       0.417000        1.0080           0
     55027 WT5      1565     TIP3     OH2      OT      -0.834000       15.9994           0
     55028 WT5      1565     TIP3     H1       HT       0.417000        1.0080           0
     55029 WT5      1565     TIP3     H2       HT       0.417000        1.0080           0
     55030 WT5      1566     TIP3     OH2      OT      -0.834000       15.9994           0
     55031 WT5      1566     TIP3     H1       HT       0.417000        1.0080           0
     55032 WT5      1566     TIP3     H2       HT       0.417000        1.0080           0
     55033 WT5      1567     TIP3     OH2      OT      -0.834000       15.9994           0
     55034 WT5      1567     TIP3     H1       HT       0.417000        1.0080           0
     55035 WT5      1567     TIP3     H2       HT       0.417000        1.0080           0
     55036 WT5      1569     TIP3     OH2      OT      -0.834000       15.9994           0
     55037 WT5      1569     TIP3     H1       HT       0.417000        1.0080           0
     55038 WT5      1569     TIP3     H2       HT       0.417000        1.0080           0
     55039 WT5      1570     TIP3     OH2      OT      -0.834000       15.9994           0
     55040 WT5      1570     TIP3     H1       HT       0.417000        1.0080           0
     55041 WT5      1570     TIP3     H2       HT       0.417000        1.0080           0
     55042 WT5      1572     TIP3     OH2      OT      -0.834000       15.9994           0
     55043 WT5      1572     TIP3     H1       HT       0.417000        1.0080           0
     55044 WT5      1572     TIP3     H2       HT       0.417000        1.0080           0
     55045 WT5      1573     TIP3     OH2      OT      -0.834000       15.9994           0
     55046 WT5      1573     TIP3     H1       HT       0.417000        1.0080           0
     55047 WT5      1573     TIP3     H2       HT       0.417000        1.0080           0
     55048 WT5      1574     TIP3     OH2      OT      -0.834000       15.9994           0
     55049 WT5      1574     TIP3     H1       HT       0.417000        1.0080           0
     55050 WT5      1574     TIP3     H2       HT       0.417000        1.0080           0
     55051 WT5      1575     TIP3     OH2      OT      -0.834000       15.9994           0
     55052 WT5      1575     TIP3     H1       HT       0.417000        1.0080           0
     55053 WT5      1575     TIP3     H2       HT       0.417000        1.0080           0
     55054 WT5      1576     TIP3     OH2      OT      -0.834000       15.9994           0
     55055 WT5      1576     TIP3     H1       HT       0.417000        1.0080           0
     55056 WT5      1576     TIP3     H2       HT       0.417000        1.0080           0
     55057 WT5      1577     TIP3     OH2      OT      -0.834000       15.9994           0
     55058 WT5      1577     TIP3     H1       HT       0.417000        1.0080           0
     55059 WT5      1577     TIP3     H2       HT       0.417000        1.0080           0
     55060 WT5      1578     TIP3     OH2      OT      -0.834000       15.9994           0
     55061 WT5      1578     TIP3     H1       HT       0.417000        1.0080           0
     55062 WT5      1578     TIP3     H2       HT       0.417000        1.0080           0
     55063 WT5      1581     TIP3     OH2      OT      -0.834000       15.9994           0
     55064 WT5      1581     TIP3     H1       HT       0.417000        1.0080           0
     55065 WT5      1581     TIP3     H2       HT       0.417000        1.0080           0
     55066 WT5      1582     TIP3     OH2      OT      -0.834000       15.9994           0
     55067 WT5      1582     TIP3     H1       HT       0.417000        1.0080           0
     55068 WT5      1582     TIP3     H2       HT       0.417000        1.0080           0
     55069 WT5      1584     TIP3     OH2      OT      -0.834000       15.9994           0
     55070 WT5      1584     TIP3     H1       HT       0.417000        1.0080           0
     55071 WT5      1584     TIP3     H2       HT       0.417000        1.0080           0
     55072 WT5      1586     TIP3     OH2      OT      -0.834000       15.9994           0
     55073 WT5      1586     TIP3     H1       HT       0.417000        1.0080           0
     55074 WT5      1586     TIP3     H2       HT       0.417000        1.0080           0
     55075 WT5      1587     TIP3     OH2      OT      -0.834000       15.9994           0
     55076 WT5      1587     TIP3     H1       HT       0.417000        1.0080           0
     55077 WT5      1587     TIP3     H2       HT       0.417000        1.0080           0
     55078 WT5      1589     TIP3     OH2      OT      -0.834000       15.9994           0
     55079 WT5      1589     TIP3     H1       HT       0.417000        1.0080           0
     55080 WT5      1589     TIP3     H2       HT       0.417000        1.0080           0
     55081 WT5      1590     TIP3     OH2      OT      -0.834000       15.9994           0
     55082 WT5      1590     TIP3     H1       HT       0.417000        1.0080           0
     55083 WT5      1590     TIP3     H2       HT       0.417000        1.0080           0
     55084 WT5      1591     TIP3     OH2      OT      -0.834000       15.9994           0
     55085 WT5      1591     TIP3     H1       HT       0.417000        1.0080           0
     55086 WT5      1591     TIP3     H2       HT       0.417000        1.0080           0
     55087 WT5      1592     TIP3     OH2      OT      -0.834000       15.9994           0
     55088 WT5      1592     TIP3     H1       HT       0.417000        1.0080           0
     55089 WT5      1592     TIP3     H2       HT       0.417000        1.0080           0
     55090 WT5      1593     TIP3     OH2      OT      -0.834000       15.9994           0
     55091 WT5      1593     TIP3     H1       HT       0.417000        1.0080           0
     55092 WT5      1593     TIP3     H2       HT       0.417000        1.0080           0
     55093 WT5      1595     TIP3     OH2      OT      -0.834000       15.9994           0
     55094 WT5      1595     TIP3     H1       HT       0.417000        1.0080           0
     55095 WT5      1595     TIP3     H2       HT       0.417000        1.0080           0
     55096 WT5      1596     TIP3     OH2      OT      -0.834000       15.9994           0
     55097 WT5      1596     TIP3     H1       HT       0.417000        1.0080           0
     55098 WT5      1596     TIP3     H2       HT       0.417000        1.0080           0
     55099 WT5      1597     TIP3     OH2      OT      -0.834000       15.9994           0
     55100 WT5      1597     TIP3     H1       HT       0.417000        1.0080           0
     55101 WT5      1597     TIP3     H2       HT       0.417000        1.0080           0
     55102 WT5      1598     TIP3     OH2      OT      -0.834000       15.9994           0
     55103 WT5      1598     TIP3     H1       HT       0.417000        1.0080           0
     55104 WT5      1598     TIP3     H2       HT       0.417000        1.0080           0
     55105 WT5      1599     TIP3     OH2      OT      -0.834000       15.9994           0
     55106 WT5      1599     TIP3     H1       HT       0.417000        1.0080           0
     55107 WT5      1599     TIP3     H2       HT       0.417000        1.0080           0
     55108 WT5      1600     TIP3     OH2      OT      -0.834000       15.9994           0
     55109 WT5      1600     TIP3     H1       HT       0.417000        1.0080           0
     55110 WT5      1600     TIP3     H2       HT       0.417000        1.0080           0
     55111 WT5      1601     TIP3     OH2      OT      -0.834000       15.9994           0
     55112 WT5      1601     TIP3     H1       HT       0.417000        1.0080           0
     55113 WT5      1601     TIP3     H2       HT       0.417000        1.0080           0
     55114 WT5      1602     TIP3     OH2      OT      -0.834000       15.9994           0
     55115 WT5      1602     TIP3     H1       HT       0.417000        1.0080           0
     55116 WT5      1602     TIP3     H2       HT       0.417000        1.0080           0
     55117 WT5      1603     TIP3     OH2      OT      -0.834000       15.9994           0
     55118 WT5      1603     TIP3     H1       HT       0.417000        1.0080           0
     55119 WT5      1603     TIP3     H2       HT       0.417000        1.0080           0
     55120 WT5      1604     TIP3     OH2      OT      -0.834000       15.9994           0
     55121 WT5      1604     TIP3     H1       HT       0.417000        1.0080           0
     55122 WT5      1604     TIP3     H2       HT       0.417000        1.0080           0
     55123 WT5      1605     TIP3     OH2      OT      -0.834000       15.9994           0
     55124 WT5      1605     TIP3     H1       HT       0.417000        1.0080           0
     55125 WT5      1605     TIP3     H2       HT       0.417000        1.0080           0
     55126 WT5      1607     TIP3     OH2      OT      -0.834000       15.9994           0
     55127 WT5      1607     TIP3     H1       HT       0.417000        1.0080           0
     55128 WT5      1607     TIP3     H2       HT       0.417000        1.0080           0
     55129 WT5      1608     TIP3     OH2      OT      -0.834000       15.9994           0
     55130 WT5      1608     TIP3     H1       HT       0.417000        1.0080           0
     55131 WT5      1608     TIP3     H2       HT       0.417000        1.0080           0
     55132 WT5      1609     TIP3     OH2      OT      -0.834000       15.9994           0
     55133 WT5      1609     TIP3     H1       HT       0.417000        1.0080           0
     55134 WT5      1609     TIP3     H2       HT       0.417000        1.0080           0
     55135 WT5      1611     TIP3     OH2      OT      -0.834000       15.9994           0
     55136 WT5      1611     TIP3     H1       HT       0.417000        1.0080           0
     55137 WT5      1611     TIP3     H2       HT       0.417000        1.0080           0
     55138 WT5      1612     TIP3     OH2      OT      -0.834000       15.9994           0
     55139 WT5      1612     TIP3     H1       HT       0.417000        1.0080           0
     55140 WT5      1612     TIP3     H2       HT       0.417000        1.0080           0
     55141 WT5      1613     TIP3     OH2      OT      -0.834000       15.9994           0
     55142 WT5      1613     TIP3     H1       HT       0.417000        1.0080           0
     55143 WT5      1613     TIP3     H2       HT       0.417000        1.0080           0
     55144 WT5      1614     TIP3     OH2      OT      -0.834000       15.9994           0
     55145 WT5      1614     TIP3     H1       HT       0.417000        1.0080           0
     55146 WT5      1614     TIP3     H2       HT       0.417000        1.0080           0
     55147 WT5      1615     TIP3     OH2      OT      -0.834000       15.9994           0
     55148 WT5      1615     TIP3     H1       HT       0.417000        1.0080           0
     55149 WT5      1615     TIP3     H2       HT       0.417000        1.0080           0
     55150 WT5      1616     TIP3     OH2      OT      -0.834000       15.9994           0
     55151 WT5      1616     TIP3     H1       HT       0.417000        1.0080           0
     55152 WT5      1616     TIP3     H2       HT       0.417000        1.0080           0
     55153 WT5      1618     TIP3     OH2      OT      -0.834000       15.9994           0
     55154 WT5      1618     TIP3     H1       HT       0.417000        1.0080           0
     55155 WT5      1618     TIP3     H2       HT       0.417000        1.0080           0
     55156 WT5      1619     TIP3     OH2      OT      -0.834000       15.9994           0
     55157 WT5      1619     TIP3     H1       HT       0.417000        1.0080           0
     55158 WT5      1619     TIP3     H2       HT       0.417000        1.0080           0
     55159 WT5      1620     TIP3     OH2      OT      -0.834000       15.9994           0
     55160 WT5      1620     TIP3     H1       HT       0.417000        1.0080           0
     55161 WT5      1620     TIP3     H2       HT       0.417000        1.0080           0
     55162 WT5      1622     TIP3     OH2      OT      -0.834000       15.9994           0
     55163 WT5      1622     TIP3     H1       HT       0.417000        1.0080           0
     55164 WT5      1622     TIP3     H2       HT       0.417000        1.0080           0
     55165 WT5      1623     TIP3     OH2      OT      -0.834000       15.9994           0
     55166 WT5      1623     TIP3     H1       HT       0.417000        1.0080           0
     55167 WT5      1623     TIP3     H2       HT       0.417000        1.0080           0
     55168 WT5      1624     TIP3     OH2      OT      -0.834000       15.9994           0
     55169 WT5      1624     TIP3     H1       HT       0.417000        1.0080           0
     55170 WT5      1624     TIP3     H2       HT       0.417000        1.0080           0
     55171 WT5      1625     TIP3     OH2      OT      -0.834000       15.9994           0
     55172 WT5      1625     TIP3     H1       HT       0.417000        1.0080           0
     55173 WT5      1625     TIP3     H2       HT       0.417000        1.0080           0
     55174 WT5      1626     TIP3     OH2      OT      -0.834000       15.9994           0
     55175 WT5      1626     TIP3     H1       HT       0.417000        1.0080           0
     55176 WT5      1626     TIP3     H2       HT       0.417000        1.0080           0
     55177 WT5      1627     TIP3     OH2      OT      -0.834000       15.9994           0
     55178 WT5      1627     TIP3     H1       HT       0.417000        1.0080           0
     55179 WT5      1627     TIP3     H2       HT       0.417000        1.0080           0
     55180 WT5      1628     TIP3     OH2      OT      -0.834000       15.9994           0
     55181 WT5      1628     TIP3     H1       HT       0.417000        1.0080           0
     55182 WT5      1628     TIP3     H2       HT       0.417000        1.0080           0
     55183 WT5      1629     TIP3     OH2      OT      -0.834000       15.9994           0
     55184 WT5      1629     TIP3     H1       HT       0.417000        1.0080           0
     55185 WT5      1629     TIP3     H2       HT       0.417000        1.0080           0
     55186 WT5      1631     TIP3     OH2      OT      -0.834000       15.9994           0
     55187 WT5      1631     TIP3     H1       HT       0.417000        1.0080           0
     55188 WT5      1631     TIP3     H2       HT       0.417000        1.0080           0
     55189 WT5      1632     TIP3     OH2      OT      -0.834000       15.9994           0
     55190 WT5      1632     TIP3     H1       HT       0.417000        1.0080           0
     55191 WT5      1632     TIP3     H2       HT       0.417000        1.0080           0
     55192 WT5      1634     TIP3     OH2      OT      -0.834000       15.9994           0
     55193 WT5      1634     TIP3     H1       HT       0.417000        1.0080           0
     55194 WT5      1634     TIP3     H2       HT       0.417000        1.0080           0
     55195 WT5      1635     TIP3     OH2      OT      -0.834000       15.9994           0
     55196 WT5      1635     TIP3     H1       HT       0.417000        1.0080           0
     55197 WT5      1635     TIP3     H2       HT       0.417000        1.0080           0
     55198 WT5      1636     TIP3     OH2      OT      -0.834000       15.9994           0
     55199 WT5      1636     TIP3     H1       HT       0.417000        1.0080           0
     55200 WT5      1636     TIP3     H2       HT       0.417000        1.0080           0
     55201 WT5      1637     TIP3     OH2      OT      -0.834000       15.9994           0
     55202 WT5      1637     TIP3     H1       HT       0.417000        1.0080           0
     55203 WT5      1637     TIP3     H2       HT       0.417000        1.0080           0
     55204 WT5      1639     TIP3     OH2      OT      -0.834000       15.9994           0
     55205 WT5      1639     TIP3     H1       HT       0.417000        1.0080           0
     55206 WT5      1639     TIP3     H2       HT       0.417000        1.0080           0
     55207 WT5      1642     TIP3     OH2      OT      -0.834000       15.9994           0
     55208 WT5      1642     TIP3     H1       HT       0.417000        1.0080           0
     55209 WT5      1642     TIP3     H2       HT       0.417000        1.0080           0
     55210 WT5      1643     TIP3     OH2      OT      -0.834000       15.9994           0
     55211 WT5      1643     TIP3     H1       HT       0.417000        1.0080           0
     55212 WT5      1643     TIP3     H2       HT       0.417000        1.0080           0
     55213 WT5      1645     TIP3     OH2      OT      -0.834000       15.9994           0
     55214 WT5      1645     TIP3     H1       HT       0.417000        1.0080           0
     55215 WT5      1645     TIP3     H2       HT       0.417000        1.0080           0
     55216 WT5      1646     TIP3     OH2      OT      -0.834000       15.9994           0
     55217 WT5      1646     TIP3     H1       HT       0.417000        1.0080           0
     55218 WT5      1646     TIP3     H2       HT       0.417000        1.0080           0
     55219 WT5      1647     TIP3     OH2      OT      -0.834000       15.9994           0
     55220 WT5      1647     TIP3     H1       HT       0.417000        1.0080           0
     55221 WT5      1647     TIP3     H2       HT       0.417000        1.0080           0
     55222 WT5      1648     TIP3     OH2      OT      -0.834000       15.9994           0
     55223 WT5      1648     TIP3     H1       HT       0.417000        1.0080           0
     55224 WT5      1648     TIP3     H2       HT       0.417000        1.0080           0
     55225 WT5      1649     TIP3     OH2      OT      -0.834000       15.9994           0
     55226 WT5      1649     TIP3     H1       HT       0.417000        1.0080           0
     55227 WT5      1649     TIP3     H2       HT       0.417000        1.0080           0
     55228 WT5      1651     TIP3     OH2      OT      -0.834000       15.9994           0
     55229 WT5      1651     TIP3     H1       HT       0.417000        1.0080           0
     55230 WT5      1651     TIP3     H2       HT       0.417000        1.0080           0
     55231 WT5      1652     TIP3     OH2      OT      -0.834000       15.9994           0
     55232 WT5      1652     TIP3     H1       HT       0.417000        1.0080           0
     55233 WT5      1652     TIP3     H2       HT       0.417000        1.0080           0
     55234 WT5      1653     TIP3     OH2      OT      -0.834000       15.9994           0
     55235 WT5      1653     TIP3     H1       HT       0.417000        1.0080           0
     55236 WT5      1653     TIP3     H2       HT       0.417000        1.0080           0
     55237 WT5      1654     TIP3     OH2      OT      -0.834000       15.9994           0
     55238 WT5      1654     TIP3     H1       HT       0.417000        1.0080           0
     55239 WT5      1654     TIP3     H2       HT       0.417000        1.0080           0
     55240 WT5      1655     TIP3     OH2      OT      -0.834000       15.9994           0
     55241 WT5      1655     TIP3     H1       HT       0.417000        1.0080           0
     55242 WT5      1655     TIP3     H2       HT       0.417000        1.0080           0
     55243 WT5      1656     TIP3     OH2      OT      -0.834000       15.9994           0
     55244 WT5      1656     TIP3     H1       HT       0.417000        1.0080           0
     55245 WT5      1656     TIP3     H2       HT       0.417000        1.0080           0
     55246 WT5      1657     TIP3     OH2      OT      -0.834000       15.9994           0
     55247 WT5      1657     TIP3     H1       HT       0.417000        1.0080           0
     55248 WT5      1657     TIP3     H2       HT       0.417000        1.0080           0
     55249 WT5      1658     TIP3     OH2      OT      -0.834000       15.9994           0
     55250 WT5      1658     TIP3     H1       HT       0.417000        1.0080           0
     55251 WT5      1658     TIP3     H2       HT       0.417000        1.0080           0
     55252 WT5      1659     TIP3     OH2      OT      -0.834000       15.9994           0
     55253 WT5      1659     TIP3     H1       HT       0.417000        1.0080           0
     55254 WT5      1659     TIP3     H2       HT       0.417000        1.0080           0
     55255 WT5      1661     TIP3     OH2      OT      -0.834000       15.9994           0
     55256 WT5      1661     TIP3     H1       HT       0.417000        1.0080           0
     55257 WT5      1661     TIP3     H2       HT       0.417000        1.0080           0
     55258 WT5      1663     TIP3     OH2      OT      -0.834000       15.9994           0
     55259 WT5      1663     TIP3     H1       HT       0.417000        1.0080           0
     55260 WT5      1663     TIP3     H2       HT       0.417000        1.0080           0
     55261 WT5      1664     TIP3     OH2      OT      -0.834000       15.9994           0
     55262 WT5      1664     TIP3     H1       HT       0.417000        1.0080           0
     55263 WT5      1664     TIP3     H2       HT       0.417000        1.0080           0
     55264 WT5      1667     TIP3     OH2      OT      -0.834000       15.9994           0
     55265 WT5      1667     TIP3     H1       HT       0.417000        1.0080           0
     55266 WT5      1667     TIP3     H2       HT       0.417000        1.0080           0
     55267 WT5      1668     TIP3     OH2      OT      -0.834000       15.9994           0
     55268 WT5      1668     TIP3     H1       HT       0.417000        1.0080           0
     55269 WT5      1668     TIP3     H2       HT       0.417000        1.0080           0
     55270 WT5      1670     TIP3     OH2      OT      -0.834000       15.9994           0
     55271 WT5      1670     TIP3     H1       HT       0.417000        1.0080           0
     55272 WT5      1670     TIP3     H2       HT       0.417000        1.0080           0
     55273 WT5      1671     TIP3     OH2      OT      -0.834000       15.9994           0
     55274 WT5      1671     TIP3     H1       HT       0.417000        1.0080           0
     55275 WT5      1671     TIP3     H2       HT       0.417000        1.0080           0
     55276 WT5      1673     TIP3     OH2      OT      -0.834000       15.9994           0
     55277 WT5      1673     TIP3     H1       HT       0.417000        1.0080           0
     55278 WT5      1673     TIP3     H2       HT       0.417000        1.0080           0
     55279 WT5      1674     TIP3     OH2      OT      -0.834000       15.9994           0
     55280 WT5      1674     TIP3     H1       HT       0.417000        1.0080           0
     55281 WT5      1674     TIP3     H2       HT       0.417000        1.0080           0
     55282 WT5      1675     TIP3     OH2      OT      -0.834000       15.9994           0
     55283 WT5      1675     TIP3     H1       HT       0.417000        1.0080           0
     55284 WT5      1675     TIP3     H2       HT       0.417000        1.0080           0
     55285 WT5      1677     TIP3     OH2      OT      -0.834000       15.9994           0
     55286 WT5      1677     TIP3     H1       HT       0.417000        1.0080           0
     55287 WT5      1677     TIP3     H2       HT       0.417000        1.0080           0
     55288 WT5      1678     TIP3     OH2      OT      -0.834000       15.9994           0
     55289 WT5      1678     TIP3     H1       HT       0.417000        1.0080           0
     55290 WT5      1678     TIP3     H2       HT       0.417000        1.0080           0
     55291 WT5      1679     TIP3     OH2      OT      -0.834000       15.9994           0
     55292 WT5      1679     TIP3     H1       HT       0.417000        1.0080           0
     55293 WT5      1679     TIP3     H2       HT       0.417000        1.0080           0
     55294 WT5      1680     TIP3     OH2      OT      -0.834000       15.9994           0
     55295 WT5      1680     TIP3     H1       HT       0.417000        1.0080           0
     55296 WT5      1680     TIP3     H2       HT       0.417000        1.0080           0
     55297 WT5      1681     TIP3     OH2      OT      -0.834000       15.9994           0
     55298 WT5      1681     TIP3     H1       HT       0.417000        1.0080           0
     55299 WT5      1681     TIP3     H2       HT       0.417000        1.0080           0
     55300 WT5      1682     TIP3     OH2      OT      -0.834000       15.9994           0
     55301 WT5      1682     TIP3     H1       HT       0.417000        1.0080           0
     55302 WT5      1682     TIP3     H2       HT       0.417000        1.0080           0
     55303 WT5      1683     TIP3     OH2      OT      -0.834000       15.9994           0
     55304 WT5      1683     TIP3     H1       HT       0.417000        1.0080           0
     55305 WT5      1683     TIP3     H2       HT       0.417000        1.0080           0
     55306 WT5      1686     TIP3     OH2      OT      -0.834000       15.9994           0
     55307 WT5      1686     TIP3     H1       HT       0.417000        1.0080           0
     55308 WT5      1686     TIP3     H2       HT       0.417000        1.0080           0
     55309 WT5      1687     TIP3     OH2      OT      -0.834000       15.9994           0
     55310 WT5      1687     TIP3     H1       HT       0.417000        1.0080           0
     55311 WT5      1687     TIP3     H2       HT       0.417000        1.0080           0
     55312 WT5      1688     TIP3     OH2      OT      -0.834000       15.9994           0
     55313 WT5      1688     TIP3     H1       HT       0.417000        1.0080           0
     55314 WT5      1688     TIP3     H2       HT       0.417000        1.0080           0
     55315 WT5      1689     TIP3     OH2      OT      -0.834000       15.9994           0
     55316 WT5      1689     TIP3     H1       HT       0.417000        1.0080           0
     55317 WT5      1689     TIP3     H2       HT       0.417000        1.0080           0
     55318 WT5      1691     TIP3     OH2      OT      -0.834000       15.9994           0
     55319 WT5      1691     TIP3     H1       HT       0.417000        1.0080           0
     55320 WT5      1691     TIP3     H2       HT       0.417000        1.0080           0
     55321 WT5      1692     TIP3     OH2      OT      -0.834000       15.9994           0
     55322 WT5      1692     TIP3     H1       HT       0.417000        1.0080           0
     55323 WT5      1692     TIP3     H2       HT       0.417000        1.0080           0
     55324 WT5      1693     TIP3     OH2      OT      -0.834000       15.9994           0
     55325 WT5      1693     TIP3     H1       HT       0.417000        1.0080           0
     55326 WT5      1693     TIP3     H2       HT       0.417000        1.0080           0
     55327 WT5      1694     TIP3     OH2      OT      -0.834000       15.9994           0
     55328 WT5      1694     TIP3     H1       HT       0.417000        1.0080           0
     55329 WT5      1694     TIP3     H2       HT       0.417000        1.0080           0
     55330 WT5      1697     TIP3     OH2      OT      -0.834000       15.9994           0
     55331 WT5      1697     TIP3     H1       HT       0.417000        1.0080           0
     55332 WT5      1697     TIP3     H2       HT       0.417000        1.0080           0
     55333 WT5      1698     TIP3     OH2      OT      -0.834000       15.9994           0
     55334 WT5      1698     TIP3     H1       HT       0.417000        1.0080           0
     55335 WT5      1698     TIP3     H2       HT       0.417000        1.0080           0
     55336 WT5      1699     TIP3     OH2      OT      -0.834000       15.9994           0
     55337 WT5      1699     TIP3     H1       HT       0.417000        1.0080           0
     55338 WT5      1699     TIP3     H2       HT       0.417000        1.0080           0
     55339 WT5      1701     TIP3     OH2      OT      -0.834000       15.9994           0
     55340 WT5      1701     TIP3     H1       HT       0.417000        1.0080           0
     55341 WT5      1701     TIP3     H2       HT       0.417000        1.0080           0
     55342 WT5      1702     TIP3     OH2      OT      -0.834000       15.9994           0
     55343 WT5      1702     TIP3     H1       HT       0.417000        1.0080           0
     55344 WT5      1702     TIP3     H2       HT       0.417000        1.0080           0
     55345 WT5      1703     TIP3     OH2      OT      -0.834000       15.9994           0
     55346 WT5      1703     TIP3     H1       HT       0.417000        1.0080           0
     55347 WT5      1703     TIP3     H2       HT       0.417000        1.0080           0
     55348 WT5      1704     TIP3     OH2      OT      -0.834000       15.9994           0
     55349 WT5      1704     TIP3     H1       HT       0.417000        1.0080           0
     55350 WT5      1704     TIP3     H2       HT       0.417000        1.0080           0
     55351 WT5      1705     TIP3     OH2      OT      -0.834000       15.9994           0
     55352 WT5      1705     TIP3     H1       HT       0.417000        1.0080           0
     55353 WT5      1705     TIP3     H2       HT       0.417000        1.0080           0
     55354 WT5      1706     TIP3     OH2      OT      -0.834000       15.9994           0
     55355 WT5      1706     TIP3     H1       HT       0.417000        1.0080           0
     55356 WT5      1706     TIP3     H2       HT       0.417000        1.0080           0
     55357 WT5      1707     TIP3     OH2      OT      -0.834000       15.9994           0
     55358 WT5      1707     TIP3     H1       HT       0.417000        1.0080           0
     55359 WT5      1707     TIP3     H2       HT       0.417000        1.0080           0
     55360 WT5      1709     TIP3     OH2      OT      -0.834000       15.9994           0
     55361 WT5      1709     TIP3     H1       HT       0.417000        1.0080           0
     55362 WT5      1709     TIP3     H2       HT       0.417000        1.0080           0
     55363 WT5      1711     TIP3     OH2      OT      -0.834000       15.9994           0
     55364 WT5      1711     TIP3     H1       HT       0.417000        1.0080           0
     55365 WT5      1711     TIP3     H2       HT       0.417000        1.0080           0
     55366 WT5      1713     TIP3     OH2      OT      -0.834000       15.9994           0
     55367 WT5      1713     TIP3     H1       HT       0.417000        1.0080           0
     55368 WT5      1713     TIP3     H2       HT       0.417000        1.0080           0
     55369 WT5      1714     TIP3     OH2      OT      -0.834000       15.9994           0
     55370 WT5      1714     TIP3     H1       HT       0.417000        1.0080           0
     55371 WT5      1714     TIP3     H2       HT       0.417000        1.0080           0
     55372 WT5      1715     TIP3     OH2      OT      -0.834000       15.9994           0
     55373 WT5      1715     TIP3     H1       HT       0.417000        1.0080           0
     55374 WT5      1715     TIP3     H2       HT       0.417000        1.0080           0
     55375 WT5      1717     TIP3     OH2      OT      -0.834000       15.9994           0
     55376 WT5      1717     TIP3     H1       HT       0.417000        1.0080           0
     55377 WT5      1717     TIP3     H2       HT       0.417000        1.0080           0
     55378 WT5      1718     TIP3     OH2      OT      -0.834000       15.9994           0
     55379 WT5      1718     TIP3     H1       HT       0.417000        1.0080           0
     55380 WT5      1718     TIP3     H2       HT       0.417000        1.0080           0
     55381 WT5      1719     TIP3     OH2      OT      -0.834000       15.9994           0
     55382 WT5      1719     TIP3     H1       HT       0.417000        1.0080           0
     55383 WT5      1719     TIP3     H2       HT       0.417000        1.0080           0
     55384 WT5      1721     TIP3     OH2      OT      -0.834000       15.9994           0
     55385 WT5      1721     TIP3     H1       HT       0.417000        1.0080           0
     55386 WT5      1721     TIP3     H2       HT       0.417000        1.0080           0
     55387 WT5      1722     TIP3     OH2      OT      -0.834000       15.9994           0
     55388 WT5      1722     TIP3     H1       HT       0.417000        1.0080           0
     55389 WT5      1722     TIP3     H2       HT       0.417000        1.0080           0
     55390 WT5      1723     TIP3     OH2      OT      -0.834000       15.9994           0
     55391 WT5      1723     TIP3     H1       HT       0.417000        1.0080           0
     55392 WT5      1723     TIP3     H2       HT       0.417000        1.0080           0
     55393 WT5      1724     TIP3     OH2      OT      -0.834000       15.9994           0
     55394 WT5      1724     TIP3     H1       HT       0.417000        1.0080           0
     55395 WT5      1724     TIP3     H2       HT       0.417000        1.0080           0
     55396 WT5      1725     TIP3     OH2      OT      -0.834000       15.9994           0
     55397 WT5      1725     TIP3     H1       HT       0.417000        1.0080           0
     55398 WT5      1725     TIP3     H2       HT       0.417000        1.0080           0
     55399 WT5      1727     TIP3     OH2      OT      -0.834000       15.9994           0
     55400 WT5      1727     TIP3     H1       HT       0.417000        1.0080           0
     55401 WT5      1727     TIP3     H2       HT       0.417000        1.0080           0
     55402 WT5      1728     TIP3     OH2      OT      -0.834000       15.9994           0
     55403 WT5      1728     TIP3     H1       HT       0.417000        1.0080           0
     55404 WT5      1728     TIP3     H2       HT       0.417000        1.0080           0
     55405 WT5      1729     TIP3     OH2      OT      -0.834000       15.9994           0
     55406 WT5      1729     TIP3     H1       HT       0.417000        1.0080           0
     55407 WT5      1729     TIP3     H2       HT       0.417000        1.0080           0
     55408 WT5      1730     TIP3     OH2      OT      -0.834000       15.9994           0
     55409 WT5      1730     TIP3     H1       HT       0.417000        1.0080           0
     55410 WT5      1730     TIP3     H2       HT       0.417000        1.0080           0
     55411 WT5      1731     TIP3     OH2      OT      -0.834000       15.9994           0
     55412 WT5      1731     TIP3     H1       HT       0.417000        1.0080           0
     55413 WT5      1731     TIP3     H2       HT       0.417000        1.0080           0
     55414 WT5      1732     TIP3     OH2      OT      -0.834000       15.9994           0
     55415 WT5      1732     TIP3     H1       HT       0.417000        1.0080           0
     55416 WT5      1732     TIP3     H2       HT       0.417000        1.0080           0
     55417 WT5      1733     TIP3     OH2      OT      -0.834000       15.9994           0
     55418 WT5      1733     TIP3     H1       HT       0.417000        1.0080           0
     55419 WT5      1733     TIP3     H2       HT       0.417000        1.0080           0
     55420 WT5      1734     TIP3     OH2      OT      -0.834000       15.9994           0
     55421 WT5      1734     TIP3     H1       HT       0.417000        1.0080           0
     55422 WT5      1734     TIP3     H2       HT       0.417000        1.0080           0
     55423 WT5      1735     TIP3     OH2      OT      -0.834000       15.9994           0
     55424 WT5      1735     TIP3     H1       HT       0.417000        1.0080           0
     55425 WT5      1735     TIP3     H2       HT       0.417000        1.0080           0
     55426 WT5      1736     TIP3     OH2      OT      -0.834000       15.9994           0
     55427 WT5      1736     TIP3     H1       HT       0.417000        1.0080           0
     55428 WT5      1736     TIP3     H2       HT       0.417000        1.0080           0
     55429 WT5      1737     TIP3     OH2      OT      -0.834000       15.9994           0
     55430 WT5      1737     TIP3     H1       HT       0.417000        1.0080           0
     55431 WT5      1737     TIP3     H2       HT       0.417000        1.0080           0
     55432 WT5      1738     TIP3     OH2      OT      -0.834000       15.9994           0
     55433 WT5      1738     TIP3     H1       HT       0.417000        1.0080           0
     55434 WT5      1738     TIP3     H2       HT       0.417000        1.0080           0
     55435 WT5      1739     TIP3     OH2      OT      -0.834000       15.9994           0
     55436 WT5      1739     TIP3     H1       HT       0.417000        1.0080           0
     55437 WT5      1739     TIP3     H2       HT       0.417000        1.0080           0
     55438 WT5      1741     TIP3     OH2      OT      -0.834000       15.9994           0
     55439 WT5      1741     TIP3     H1       HT       0.417000        1.0080           0
     55440 WT5      1741     TIP3     H2       HT       0.417000        1.0080           0
     55441 WT5      1742     TIP3     OH2      OT      -0.834000       15.9994           0
     55442 WT5      1742     TIP3     H1       HT       0.417000        1.0080           0
     55443 WT5      1742     TIP3     H2       HT       0.417000        1.0080           0
     55444 WT5      1743     TIP3     OH2      OT      -0.834000       15.9994           0
     55445 WT5      1743     TIP3     H1       HT       0.417000        1.0080           0
     55446 WT5      1743     TIP3     H2       HT       0.417000        1.0080           0
     55447 WT5      1744     TIP3     OH2      OT      -0.834000       15.9994           0
     55448 WT5      1744     TIP3     H1       HT       0.417000        1.0080           0
     55449 WT5      1744     TIP3     H2       HT       0.417000        1.0080           0
     55450 WT5      1745     TIP3     OH2      OT      -0.834000       15.9994           0
     55451 WT5      1745     TIP3     H1       HT       0.417000        1.0080           0
     55452 WT5      1745     TIP3     H2       HT       0.417000        1.0080           0
     55453 WT5      1746     TIP3     OH2      OT      -0.834000       15.9994           0
     55454 WT5      1746     TIP3     H1       HT       0.417000        1.0080           0
     55455 WT5      1746     TIP3     H2       HT       0.417000        1.0080           0
     55456 WT5      1749     TIP3     OH2      OT      -0.834000       15.9994           0
     55457 WT5      1749     TIP3     H1       HT       0.417000        1.0080           0
     55458 WT5      1749     TIP3     H2       HT       0.417000        1.0080           0
     55459 WT5      1750     TIP3     OH2      OT      -0.834000       15.9994           0
     55460 WT5      1750     TIP3     H1       HT       0.417000        1.0080           0
     55461 WT5      1750     TIP3     H2       HT       0.417000        1.0080           0
     55462 WT5      1751     TIP3     OH2      OT      -0.834000       15.9994           0
     55463 WT5      1751     TIP3     H1       HT       0.417000        1.0080           0
     55464 WT5      1751     TIP3     H2       HT       0.417000        1.0080           0
     55465 WT5      1752     TIP3     OH2      OT      -0.834000       15.9994           0
     55466 WT5      1752     TIP3     H1       HT       0.417000        1.0080           0
     55467 WT5      1752     TIP3     H2       HT       0.417000        1.0080           0
     55468 WT5      1753     TIP3     OH2      OT      -0.834000       15.9994           0
     55469 WT5      1753     TIP3     H1       HT       0.417000        1.0080           0
     55470 WT5      1753     TIP3     H2       HT       0.417000        1.0080           0
     55471 WT5      1754     TIP3     OH2      OT      -0.834000       15.9994           0
     55472 WT5      1754     TIP3     H1       HT       0.417000        1.0080           0
     55473 WT5      1754     TIP3     H2       HT       0.417000        1.0080           0
     55474 WT5      1755     TIP3     OH2      OT      -0.834000       15.9994           0
     55475 WT5      1755     TIP3     H1       HT       0.417000        1.0080           0
     55476 WT5      1755     TIP3     H2       HT       0.417000        1.0080           0
     55477 WT5      1756     TIP3     OH2      OT      -0.834000       15.9994           0
     55478 WT5      1756     TIP3     H1       HT       0.417000        1.0080           0
     55479 WT5      1756     TIP3     H2       HT       0.417000        1.0080           0
     55480 WT5      1757     TIP3     OH2      OT      -0.834000       15.9994           0
     55481 WT5      1757     TIP3     H1       HT       0.417000        1.0080           0
     55482 WT5      1757     TIP3     H2       HT       0.417000        1.0080           0
     55483 WT5      1758     TIP3     OH2      OT      -0.834000       15.9994           0
     55484 WT5      1758     TIP3     H1       HT       0.417000        1.0080           0
     55485 WT5      1758     TIP3     H2       HT       0.417000        1.0080           0
     55486 WT5      1761     TIP3     OH2      OT      -0.834000       15.9994           0
     55487 WT5      1761     TIP3     H1       HT       0.417000        1.0080           0
     55488 WT5      1761     TIP3     H2       HT       0.417000        1.0080           0
     55489 WT5      1762     TIP3     OH2      OT      -0.834000       15.9994           0
     55490 WT5      1762     TIP3     H1       HT       0.417000        1.0080           0
     55491 WT5      1762     TIP3     H2       HT       0.417000        1.0080           0
     55492 WT5      1763     TIP3     OH2      OT      -0.834000       15.9994           0
     55493 WT5      1763     TIP3     H1       HT       0.417000        1.0080           0
     55494 WT5      1763     TIP3     H2       HT       0.417000        1.0080           0
     55495 WT5      1764     TIP3     OH2      OT      -0.834000       15.9994           0
     55496 WT5      1764     TIP3     H1       HT       0.417000        1.0080           0
     55497 WT5      1764     TIP3     H2       HT       0.417000        1.0080           0
     55498 WT5      1765     TIP3     OH2      OT      -0.834000       15.9994           0
     55499 WT5      1765     TIP3     H1       HT       0.417000        1.0080           0
     55500 WT5      1765     TIP3     H2       HT       0.417000        1.0080           0
     55501 WT5      1766     TIP3     OH2      OT      -0.834000       15.9994           0
     55502 WT5      1766     TIP3     H1       HT       0.417000        1.0080           0
     55503 WT5      1766     TIP3     H2       HT       0.417000        1.0080           0
     55504 WT5      1767     TIP3     OH2      OT      -0.834000       15.9994           0
     55505 WT5      1767     TIP3     H1       HT       0.417000        1.0080           0
     55506 WT5      1767     TIP3     H2       HT       0.417000        1.0080           0
     55507 WT5      1769     TIP3     OH2      OT      -0.834000       15.9994           0
     55508 WT5      1769     TIP3     H1       HT       0.417000        1.0080           0
     55509 WT5      1769     TIP3     H2       HT       0.417000        1.0080           0
     55510 WT5      1770     TIP3     OH2      OT      -0.834000       15.9994           0
     55511 WT5      1770     TIP3     H1       HT       0.417000        1.0080           0
     55512 WT5      1770     TIP3     H2       HT       0.417000        1.0080           0
     55513 WT5      1771     TIP3     OH2      OT      -0.834000       15.9994           0
     55514 WT5      1771     TIP3     H1       HT       0.417000        1.0080           0
     55515 WT5      1771     TIP3     H2       HT       0.417000        1.0080           0
     55516 WT5      1772     TIP3     OH2      OT      -0.834000       15.9994           0
     55517 WT5      1772     TIP3     H1       HT       0.417000        1.0080           0
     55518 WT5      1772     TIP3     H2       HT       0.417000        1.0080           0
     55519 WT5      1773     TIP3     OH2      OT      -0.834000       15.9994           0
     55520 WT5      1773     TIP3     H1       HT       0.417000        1.0080           0
     55521 WT5      1773     TIP3     H2       HT       0.417000        1.0080           0
     55522 WT5      1774     TIP3     OH2      OT      -0.834000       15.9994           0
     55523 WT5      1774     TIP3     H1       HT       0.417000        1.0080           0
     55524 WT5      1774     TIP3     H2       HT       0.417000        1.0080           0
     55525 WT5      1775     TIP3     OH2      OT      -0.834000       15.9994           0
     55526 WT5      1775     TIP3     H1       HT       0.417000        1.0080           0
     55527 WT5      1775     TIP3     H2       HT       0.417000        1.0080           0
     55528 WT5      1776     TIP3     OH2      OT      -0.834000       15.9994           0
     55529 WT5      1776     TIP3     H1       HT       0.417000        1.0080           0
     55530 WT5      1776     TIP3     H2       HT       0.417000        1.0080           0
     55531 WT5      1777     TIP3     OH2      OT      -0.834000       15.9994           0
     55532 WT5      1777     TIP3     H1       HT       0.417000        1.0080           0
     55533 WT5      1777     TIP3     H2       HT       0.417000        1.0080           0
     55534 WT5      1778     TIP3     OH2      OT      -0.834000       15.9994           0
     55535 WT5      1778     TIP3     H1       HT       0.417000        1.0080           0
     55536 WT5      1778     TIP3     H2       HT       0.417000        1.0080           0
     55537 WT5      1779     TIP3     OH2      OT      -0.834000       15.9994           0
     55538 WT5      1779     TIP3     H1       HT       0.417000        1.0080           0
     55539 WT5      1779     TIP3     H2       HT       0.417000        1.0080           0
     55540 WT5      1780     TIP3     OH2      OT      -0.834000       15.9994           0
     55541 WT5      1780     TIP3     H1       HT       0.417000        1.0080           0
     55542 WT5      1780     TIP3     H2       HT       0.417000        1.0080           0
     55543 WT5      1781     TIP3     OH2      OT      -0.834000       15.9994           0
     55544 WT5      1781     TIP3     H1       HT       0.417000        1.0080           0
     55545 WT5      1781     TIP3     H2       HT       0.417000        1.0080           0
     55546 WT5      1782     TIP3     OH2      OT      -0.834000       15.9994           0
     55547 WT5      1782     TIP3     H1       HT       0.417000        1.0080           0
     55548 WT5      1782     TIP3     H2       HT       0.417000        1.0080           0
     55549 WT5      1783     TIP3     OH2      OT      -0.834000       15.9994           0
     55550 WT5      1783     TIP3     H1       HT       0.417000        1.0080           0
     55551 WT5      1783     TIP3     H2       HT       0.417000        1.0080           0
     55552 WT5      1784     TIP3     OH2      OT      -0.834000       15.9994           0
     55553 WT5      1784     TIP3     H1       HT       0.417000        1.0080           0
     55554 WT5      1784     TIP3     H2       HT       0.417000        1.0080           0
     55555 WT5      1785     TIP3     OH2      OT      -0.834000       15.9994           0
     55556 WT5      1785     TIP3     H1       HT       0.417000        1.0080           0
     55557 WT5      1785     TIP3     H2       HT       0.417000        1.0080           0
     55558 WT5      1786     TIP3     OH2      OT      -0.834000       15.9994           0
     55559 WT5      1786     TIP3     H1       HT       0.417000        1.0080           0
     55560 WT5      1786     TIP3     H2       HT       0.417000        1.0080           0
     55561 WT5      1787     TIP3     OH2      OT      -0.834000       15.9994           0
     55562 WT5      1787     TIP3     H1       HT       0.417000        1.0080           0
     55563 WT5      1787     TIP3     H2       HT       0.417000        1.0080           0
     55564 WT5      1788     TIP3     OH2      OT      -0.834000       15.9994           0
     55565 WT5      1788     TIP3     H1       HT       0.417000        1.0080           0
     55566 WT5      1788     TIP3     H2       HT       0.417000        1.0080           0
     55567 WT5      1789     TIP3     OH2      OT      -0.834000       15.9994           0
     55568 WT5      1789     TIP3     H1       HT       0.417000        1.0080           0
     55569 WT5      1789     TIP3     H2       HT       0.417000        1.0080           0
     55570 WT5      1790     TIP3     OH2      OT      -0.834000       15.9994           0
     55571 WT5      1790     TIP3     H1       HT       0.417000        1.0080           0
     55572 WT5      1790     TIP3     H2       HT       0.417000        1.0080           0
     55573 WT5      1791     TIP3     OH2      OT      -0.834000       15.9994           0
     55574 WT5      1791     TIP3     H1       HT       0.417000        1.0080           0
     55575 WT5      1791     TIP3     H2       HT       0.417000        1.0080           0
     55576 WT5      1792     TIP3     OH2      OT      -0.834000       15.9994           0
     55577 WT5      1792     TIP3     H1       HT       0.417000        1.0080           0
     55578 WT5      1792     TIP3     H2       HT       0.417000        1.0080           0
     55579 WT5      1793     TIP3     OH2      OT      -0.834000       15.9994           0
     55580 WT5      1793     TIP3     H1       HT       0.417000        1.0080           0
     55581 WT5      1793     TIP3     H2       HT       0.417000        1.0080           0
     55582 WT5      1794     TIP3     OH2      OT      -0.834000       15.9994           0
     55583 WT5      1794     TIP3     H1       HT       0.417000        1.0080           0
     55584 WT5      1794     TIP3     H2       HT       0.417000        1.0080           0
     55585 WT5      1795     TIP3     OH2      OT      -0.834000       15.9994           0
     55586 WT5      1795     TIP3     H1       HT       0.417000        1.0080           0
     55587 WT5      1795     TIP3     H2       HT       0.417000        1.0080           0
     55588 WT5      1796     TIP3     OH2      OT      -0.834000       15.9994           0
     55589 WT5      1796     TIP3     H1       HT       0.417000        1.0080           0
     55590 WT5      1796     TIP3     H2       HT       0.417000        1.0080           0
     55591 WT5      1797     TIP3     OH2      OT      -0.834000       15.9994           0
     55592 WT5      1797     TIP3     H1       HT       0.417000        1.0080           0
     55593 WT5      1797     TIP3     H2       HT       0.417000        1.0080           0
     55594 WT5      1798     TIP3     OH2      OT      -0.834000       15.9994           0
     55595 WT5      1798     TIP3     H1       HT       0.417000        1.0080           0
     55596 WT5      1798     TIP3     H2       HT       0.417000        1.0080           0
     55597 WT5      1799     TIP3     OH2      OT      -0.834000       15.9994           0
     55598 WT5      1799     TIP3     H1       HT       0.417000        1.0080           0
     55599 WT5      1799     TIP3     H2       HT       0.417000        1.0080           0
     55600 WT5      1800     TIP3     OH2      OT      -0.834000       15.9994           0
     55601 WT5      1800     TIP3     H1       HT       0.417000        1.0080           0
     55602 WT5      1800     TIP3     H2       HT       0.417000        1.0080           0
     55603 WT5      1801     TIP3     OH2      OT      -0.834000       15.9994           0
     55604 WT5      1801     TIP3     H1       HT       0.417000        1.0080           0
     55605 WT5      1801     TIP3     H2       HT       0.417000        1.0080           0
     55606 WT5      1802     TIP3     OH2      OT      -0.834000       15.9994           0
     55607 WT5      1802     TIP3     H1       HT       0.417000        1.0080           0
     55608 WT5      1802     TIP3     H2       HT       0.417000        1.0080           0
     55609 WT5      1803     TIP3     OH2      OT      -0.834000       15.9994           0
     55610 WT5      1803     TIP3     H1       HT       0.417000        1.0080           0
     55611 WT5      1803     TIP3     H2       HT       0.417000        1.0080           0
     55612 WT5      1804     TIP3     OH2      OT      -0.834000       15.9994           0
     55613 WT5      1804     TIP3     H1       HT       0.417000        1.0080           0
     55614 WT5      1804     TIP3     H2       HT       0.417000        1.0080           0
     55615 WT5      1805     TIP3     OH2      OT      -0.834000       15.9994           0
     55616 WT5      1805     TIP3     H1       HT       0.417000        1.0080           0
     55617 WT5      1805     TIP3     H2       HT       0.417000        1.0080           0
     55618 WT5      1806     TIP3     OH2      OT      -0.834000       15.9994           0
     55619 WT5      1806     TIP3     H1       HT       0.417000        1.0080           0
     55620 WT5      1806     TIP3     H2       HT       0.417000        1.0080           0
     55621 WT5      1807     TIP3     OH2      OT      -0.834000       15.9994           0
     55622 WT5      1807     TIP3     H1       HT       0.417000        1.0080           0
     55623 WT5      1807     TIP3     H2       HT       0.417000        1.0080           0
     55624 WT5      1812     TIP3     OH2      OT      -0.834000       15.9994           0
     55625 WT5      1812     TIP3     H1       HT       0.417000        1.0080           0
     55626 WT5      1812     TIP3     H2       HT       0.417000        1.0080           0
     55627 WT5      1813     TIP3     OH2      OT      -0.834000       15.9994           0
     55628 WT5      1813     TIP3     H1       HT       0.417000        1.0080           0
     55629 WT5      1813     TIP3     H2       HT       0.417000        1.0080           0
     55630 WT5      1814     TIP3     OH2      OT      -0.834000       15.9994           0
     55631 WT5      1814     TIP3     H1       HT       0.417000        1.0080           0
     55632 WT5      1814     TIP3     H2       HT       0.417000        1.0080           0
     55633 WT5      1815     TIP3     OH2      OT      -0.834000       15.9994           0
     55634 WT5      1815     TIP3     H1       HT       0.417000        1.0080           0
     55635 WT5      1815     TIP3     H2       HT       0.417000        1.0080           0
     55636 WT5      1816     TIP3     OH2      OT      -0.834000       15.9994           0
     55637 WT5      1816     TIP3     H1       HT       0.417000        1.0080           0
     55638 WT5      1816     TIP3     H2       HT       0.417000        1.0080           0
     55639 WT5      1817     TIP3     OH2      OT      -0.834000       15.9994           0
     55640 WT5      1817     TIP3     H1       HT       0.417000        1.0080           0
     55641 WT5      1817     TIP3     H2       HT       0.417000        1.0080           0
     55642 WT5      1818     TIP3     OH2      OT      -0.834000       15.9994           0
     55643 WT5      1818     TIP3     H1       HT       0.417000        1.0080           0
     55644 WT5      1818     TIP3     H2       HT       0.417000        1.0080           0
     55645 WT5      1819     TIP3     OH2      OT      -0.834000       15.9994           0
     55646 WT5      1819     TIP3     H1       HT       0.417000        1.0080           0
     55647 WT5      1819     TIP3     H2       HT       0.417000        1.0080           0
     55648 WT5      1820     TIP3     OH2      OT      -0.834000       15.9994           0
     55649 WT5      1820     TIP3     H1       HT       0.417000        1.0080           0
     55650 WT5      1820     TIP3     H2       HT       0.417000        1.0080           0
     55651 WT5      1821     TIP3     OH2      OT      -0.834000       15.9994           0
     55652 WT5      1821     TIP3     H1       HT       0.417000        1.0080           0
     55653 WT5      1821     TIP3     H2       HT       0.417000        1.0080           0
     55654 WT5      1822     TIP3     OH2      OT      -0.834000       15.9994           0
     55655 WT5      1822     TIP3     H1       HT       0.417000        1.0080           0
     55656 WT5      1822     TIP3     H2       HT       0.417000        1.0080           0
     55657 WT5      1823     TIP3     OH2      OT      -0.834000       15.9994           0
     55658 WT5      1823     TIP3     H1       HT       0.417000        1.0080           0
     55659 WT5      1823     TIP3     H2       HT       0.417000        1.0080           0
     55660 WT5      1824     TIP3     OH2      OT      -0.834000       15.9994           0
     55661 WT5      1824     TIP3     H1       HT       0.417000        1.0080           0
     55662 WT5      1824     TIP3     H2       HT       0.417000        1.0080           0
     55663 WT5      1828     TIP3     OH2      OT      -0.834000       15.9994           0
     55664 WT5      1828     TIP3     H1       HT       0.417000        1.0080           0
     55665 WT5      1828     TIP3     H2       HT       0.417000        1.0080           0
     55666 WT5      1829     TIP3     OH2      OT      -0.834000       15.9994           0
     55667 WT5      1829     TIP3     H1       HT       0.417000        1.0080           0
     55668 WT5      1829     TIP3     H2       HT       0.417000        1.0080           0
     55669 WT5      1830     TIP3     OH2      OT      -0.834000       15.9994           0
     55670 WT5      1830     TIP3     H1       HT       0.417000        1.0080           0
     55671 WT5      1830     TIP3     H2       HT       0.417000        1.0080           0
     55672 WT5      1831     TIP3     OH2      OT      -0.834000       15.9994           0
     55673 WT5      1831     TIP3     H1       HT       0.417000        1.0080           0
     55674 WT5      1831     TIP3     H2       HT       0.417000        1.0080           0
     55675 WT5      1832     TIP3     OH2      OT      -0.834000       15.9994           0
     55676 WT5      1832     TIP3     H1       HT       0.417000        1.0080           0
     55677 WT5      1832     TIP3     H2       HT       0.417000        1.0080           0
     55678 WT5      1833     TIP3     OH2      OT      -0.834000       15.9994           0
     55679 WT5      1833     TIP3     H1       HT       0.417000        1.0080           0
     55680 WT5      1833     TIP3     H2       HT       0.417000        1.0080           0
     55681 WT5      1834     TIP3     OH2      OT      -0.834000       15.9994           0
     55682 WT5      1834     TIP3     H1       HT       0.417000        1.0080           0
     55683 WT5      1834     TIP3     H2       HT       0.417000        1.0080           0
     55684 WT5      1835     TIP3     OH2      OT      -0.834000       15.9994           0
     55685 WT5      1835     TIP3     H1       HT       0.417000        1.0080           0
     55686 WT5      1835     TIP3     H2       HT       0.417000        1.0080           0
     55687 WT5      1836     TIP3     OH2      OT      -0.834000       15.9994           0
     55688 WT5      1836     TIP3     H1       HT       0.417000        1.0080           0
     55689 WT5      1836     TIP3     H2       HT       0.417000        1.0080           0
     55690 WT5      1837     TIP3     OH2      OT      -0.834000       15.9994           0
     55691 WT5      1837     TIP3     H1       HT       0.417000        1.0080           0
     55692 WT5      1837     TIP3     H2       HT       0.417000        1.0080           0
     55693 WT5      1838     TIP3     OH2      OT      -0.834000       15.9994           0
     55694 WT5      1838     TIP3     H1       HT       0.417000        1.0080           0
     55695 WT5      1838     TIP3     H2       HT       0.417000        1.0080           0
     55696 WT5      1839     TIP3     OH2      OT      -0.834000       15.9994           0
     55697 WT5      1839     TIP3     H1       HT       0.417000        1.0080           0
     55698 WT5      1839     TIP3     H2       HT       0.417000        1.0080           0
     55699 WT5      1841     TIP3     OH2      OT      -0.834000       15.9994           0
     55700 WT5      1841     TIP3     H1       HT       0.417000        1.0080           0
     55701 WT5      1841     TIP3     H2       HT       0.417000        1.0080           0
     55702 WT5      1842     TIP3     OH2      OT      -0.834000       15.9994           0
     55703 WT5      1842     TIP3     H1       HT       0.417000        1.0080           0
     55704 WT5      1842     TIP3     H2       HT       0.417000        1.0080           0
     55705 WT5      1844     TIP3     OH2      OT      -0.834000       15.9994           0
     55706 WT5      1844     TIP3     H1       HT       0.417000        1.0080           0
     55707 WT5      1844     TIP3     H2       HT       0.417000        1.0080           0
     55708 WT5      1845     TIP3     OH2      OT      -0.834000       15.9994           0
     55709 WT5      1845     TIP3     H1       HT       0.417000        1.0080           0
     55710 WT5      1845     TIP3     H2       HT       0.417000        1.0080           0
     55711 WT5      1846     TIP3     OH2      OT      -0.834000       15.9994           0
     55712 WT5      1846     TIP3     H1       HT       0.417000        1.0080           0
     55713 WT5      1846     TIP3     H2       HT       0.417000        1.0080           0
     55714 WT5      1847     TIP3     OH2      OT      -0.834000       15.9994           0
     55715 WT5      1847     TIP3     H1       HT       0.417000        1.0080           0
     55716 WT5      1847     TIP3     H2       HT       0.417000        1.0080           0
     55717 WT5      1848     TIP3     OH2      OT      -0.834000       15.9994           0
     55718 WT5      1848     TIP3     H1       HT       0.417000        1.0080           0
     55719 WT5      1848     TIP3     H2       HT       0.417000        1.0080           0
     55720 WT5      1849     TIP3     OH2      OT      -0.834000       15.9994           0
     55721 WT5      1849     TIP3     H1       HT       0.417000        1.0080           0
     55722 WT5      1849     TIP3     H2       HT       0.417000        1.0080           0
     55723 WT5      1850     TIP3     OH2      OT      -0.834000       15.9994           0
     55724 WT5      1850     TIP3     H1       HT       0.417000        1.0080           0
     55725 WT5      1850     TIP3     H2       HT       0.417000        1.0080           0
     55726 WT5      1851     TIP3     OH2      OT      -0.834000       15.9994           0
     55727 WT5      1851     TIP3     H1       HT       0.417000        1.0080           0
     55728 WT5      1851     TIP3     H2       HT       0.417000        1.0080           0
     55729 WT5      1853     TIP3     OH2      OT      -0.834000       15.9994           0
     55730 WT5      1853     TIP3     H1       HT       0.417000        1.0080           0
     55731 WT5      1853     TIP3     H2       HT       0.417000        1.0080           0
     55732 WT5      1854     TIP3     OH2      OT      -0.834000       15.9994           0
     55733 WT5      1854     TIP3     H1       HT       0.417000        1.0080           0
     55734 WT5      1854     TIP3     H2       HT       0.417000        1.0080           0
     55735 WT5      1856     TIP3     OH2      OT      -0.834000       15.9994           0
     55736 WT5      1856     TIP3     H1       HT       0.417000        1.0080           0
     55737 WT5      1856     TIP3     H2       HT       0.417000        1.0080           0
     55738 WT5      1857     TIP3     OH2      OT      -0.834000       15.9994           0
     55739 WT5      1857     TIP3     H1       HT       0.417000        1.0080           0
     55740 WT5      1857     TIP3     H2       HT       0.417000        1.0080           0
     55741 WT5      1858     TIP3     OH2      OT      -0.834000       15.9994           0
     55742 WT5      1858     TIP3     H1       HT       0.417000        1.0080           0
     55743 WT5      1858     TIP3     H2       HT       0.417000        1.0080           0
     55744 WT5      1859     TIP3     OH2      OT      -0.834000       15.9994           0
     55745 WT5      1859     TIP3     H1       HT       0.417000        1.0080           0
     55746 WT5      1859     TIP3     H2       HT       0.417000        1.0080           0
     55747 WT5      1860     TIP3     OH2      OT      -0.834000       15.9994           0
     55748 WT5      1860     TIP3     H1       HT       0.417000        1.0080           0
     55749 WT5      1860     TIP3     H2       HT       0.417000        1.0080           0
     55750 WT5      1861     TIP3     OH2      OT      -0.834000       15.9994           0
     55751 WT5      1861     TIP3     H1       HT       0.417000        1.0080           0
     55752 WT5      1861     TIP3     H2       HT       0.417000        1.0080           0
     55753 WT5      1863     TIP3     OH2      OT      -0.834000       15.9994           0
     55754 WT5      1863     TIP3     H1       HT       0.417000        1.0080           0
     55755 WT5      1863     TIP3     H2       HT       0.417000        1.0080           0
     55756 WT5      1864     TIP3     OH2      OT      -0.834000       15.9994           0
     55757 WT5      1864     TIP3     H1       HT       0.417000        1.0080           0
     55758 WT5      1864     TIP3     H2       HT       0.417000        1.0080           0
     55759 WT5      1866     TIP3     OH2      OT      -0.834000       15.9994           0
     55760 WT5      1866     TIP3     H1       HT       0.417000        1.0080           0
     55761 WT5      1866     TIP3     H2       HT       0.417000        1.0080           0
     55762 WT5      1867     TIP3     OH2      OT      -0.834000       15.9994           0
     55763 WT5      1867     TIP3     H1       HT       0.417000        1.0080           0
     55764 WT5      1867     TIP3     H2       HT       0.417000        1.0080           0
     55765 WT5      1869     TIP3     OH2      OT      -0.834000       15.9994           0
     55766 WT5      1869     TIP3     H1       HT       0.417000        1.0080           0
     55767 WT5      1869     TIP3     H2       HT       0.417000        1.0080           0
     55768 WT5      1870     TIP3     OH2      OT      -0.834000       15.9994           0
     55769 WT5      1870     TIP3     H1       HT       0.417000        1.0080           0
     55770 WT5      1870     TIP3     H2       HT       0.417000        1.0080           0
     55771 WT5      1871     TIP3     OH2      OT      -0.834000       15.9994           0
     55772 WT5      1871     TIP3     H1       HT       0.417000        1.0080           0
     55773 WT5      1871     TIP3     H2       HT       0.417000        1.0080           0
     55774 WT5      1873     TIP3     OH2      OT      -0.834000       15.9994           0
     55775 WT5      1873     TIP3     H1       HT       0.417000        1.0080           0
     55776 WT5      1873     TIP3     H2       HT       0.417000        1.0080           0
     55777 WT5      1874     TIP3     OH2      OT      -0.834000       15.9994           0
     55778 WT5      1874     TIP3     H1       HT       0.417000        1.0080           0
     55779 WT5      1874     TIP3     H2       HT       0.417000        1.0080           0
     55780 WT5      1875     TIP3     OH2      OT      -0.834000       15.9994           0
     55781 WT5      1875     TIP3     H1       HT       0.417000        1.0080           0
     55782 WT5      1875     TIP3     H2       HT       0.417000        1.0080           0
     55783 WT5      1876     TIP3     OH2      OT      -0.834000       15.9994           0
     55784 WT5      1876     TIP3     H1       HT       0.417000        1.0080           0
     55785 WT5      1876     TIP3     H2       HT       0.417000        1.0080           0
     55786 WT5      1877     TIP3     OH2      OT      -0.834000       15.9994           0
     55787 WT5      1877     TIP3     H1       HT       0.417000        1.0080           0
     55788 WT5      1877     TIP3     H2       HT       0.417000        1.0080           0
     55789 WT5      1878     TIP3     OH2      OT      -0.834000       15.9994           0
     55790 WT5      1878     TIP3     H1       HT       0.417000        1.0080           0
     55791 WT5      1878     TIP3     H2       HT       0.417000        1.0080           0
     55792 WT5      1879     TIP3     OH2      OT      -0.834000       15.9994           0
     55793 WT5      1879     TIP3     H1       HT       0.417000        1.0080           0
     55794 WT5      1879     TIP3     H2       HT       0.417000        1.0080           0
     55795 WT5      1880     TIP3     OH2      OT      -0.834000       15.9994           0
     55796 WT5      1880     TIP3     H1       HT       0.417000        1.0080           0
     55797 WT5      1880     TIP3     H2       HT       0.417000        1.0080           0
     55798 WT5      1881     TIP3     OH2      OT      -0.834000       15.9994           0
     55799 WT5      1881     TIP3     H1       HT       0.417000        1.0080           0
     55800 WT5      1881     TIP3     H2       HT       0.417000        1.0080           0
     55801 WT5      1882     TIP3     OH2      OT      -0.834000       15.9994           0
     55802 WT5      1882     TIP3     H1       HT       0.417000        1.0080           0
     55803 WT5      1882     TIP3     H2       HT       0.417000        1.0080           0
     55804 WT5      1883     TIP3     OH2      OT      -0.834000       15.9994           0
     55805 WT5      1883     TIP3     H1       HT       0.417000        1.0080           0
     55806 WT5      1883     TIP3     H2       HT       0.417000        1.0080           0
     55807 WT5      1884     TIP3     OH2      OT      -0.834000       15.9994           0
     55808 WT5      1884     TIP3     H1       HT       0.417000        1.0080           0
     55809 WT5      1884     TIP3     H2       HT       0.417000        1.0080           0
     55810 WT5      1886     TIP3     OH2      OT      -0.834000       15.9994           0
     55811 WT5      1886     TIP3     H1       HT       0.417000        1.0080           0
     55812 WT5      1886     TIP3     H2       HT       0.417000        1.0080           0
     55813 WT5      1887     TIP3     OH2      OT      -0.834000       15.9994           0
     55814 WT5      1887     TIP3     H1       HT       0.417000        1.0080           0
     55815 WT5      1887     TIP3     H2       HT       0.417000        1.0080           0
     55816 WT5      1888     TIP3     OH2      OT      -0.834000       15.9994           0
     55817 WT5      1888     TIP3     H1       HT       0.417000        1.0080           0
     55818 WT5      1888     TIP3     H2       HT       0.417000        1.0080           0
     55819 WT5      1889     TIP3     OH2      OT      -0.834000       15.9994           0
     55820 WT5      1889     TIP3     H1       HT       0.417000        1.0080           0
     55821 WT5      1889     TIP3     H2       HT       0.417000        1.0080           0
     55822 WT5      1890     TIP3     OH2      OT      -0.834000       15.9994           0
     55823 WT5      1890     TIP3     H1       HT       0.417000        1.0080           0
     55824 WT5      1890     TIP3     H2       HT       0.417000        1.0080           0
     55825 WT5      1891     TIP3     OH2      OT      -0.834000       15.9994           0
     55826 WT5      1891     TIP3     H1       HT       0.417000        1.0080           0
     55827 WT5      1891     TIP3     H2       HT       0.417000        1.0080           0
     55828 WT5      1892     TIP3     OH2      OT      -0.834000       15.9994           0
     55829 WT5      1892     TIP3     H1       HT       0.417000        1.0080           0
     55830 WT5      1892     TIP3     H2       HT       0.417000        1.0080           0
     55831 WT5      1893     TIP3     OH2      OT      -0.834000       15.9994           0
     55832 WT5      1893     TIP3     H1       HT       0.417000        1.0080           0
     55833 WT5      1893     TIP3     H2       HT       0.417000        1.0080           0
     55834 WT5      1894     TIP3     OH2      OT      -0.834000       15.9994           0
     55835 WT5      1894     TIP3     H1       HT       0.417000        1.0080           0
     55836 WT5      1894     TIP3     H2       HT       0.417000        1.0080           0
     55837 WT5      1896     TIP3     OH2      OT      -0.834000       15.9994           0
     55838 WT5      1896     TIP3     H1       HT       0.417000        1.0080           0
     55839 WT5      1896     TIP3     H2       HT       0.417000        1.0080           0
     55840 WT5      1897     TIP3     OH2      OT      -0.834000       15.9994           0
     55841 WT5      1897     TIP3     H1       HT       0.417000        1.0080           0
     55842 WT5      1897     TIP3     H2       HT       0.417000        1.0080           0
     55843 WT5      1898     TIP3     OH2      OT      -0.834000       15.9994           0
     55844 WT5      1898     TIP3     H1       HT       0.417000        1.0080           0
     55845 WT5      1898     TIP3     H2       HT       0.417000        1.0080           0
     55846 WT5      1899     TIP3     OH2      OT      -0.834000       15.9994           0
     55847 WT5      1899     TIP3     H1       HT       0.417000        1.0080           0
     55848 WT5      1899     TIP3     H2       HT       0.417000        1.0080           0
     55849 WT5      1900     TIP3     OH2      OT      -0.834000       15.9994           0
     55850 WT5      1900     TIP3     H1       HT       0.417000        1.0080           0
     55851 WT5      1900     TIP3     H2       HT       0.417000        1.0080           0
     55852 WT5      1901     TIP3     OH2      OT      -0.834000       15.9994           0
     55853 WT5      1901     TIP3     H1       HT       0.417000        1.0080           0
     55854 WT5      1901     TIP3     H2       HT       0.417000        1.0080           0
     55855 WT5      1902     TIP3     OH2      OT      -0.834000       15.9994           0
     55856 WT5      1902     TIP3     H1       HT       0.417000        1.0080           0
     55857 WT5      1902     TIP3     H2       HT       0.417000        1.0080           0
     55858 WT5      1903     TIP3     OH2      OT      -0.834000       15.9994           0
     55859 WT5      1903     TIP3     H1       HT       0.417000        1.0080           0
     55860 WT5      1903     TIP3     H2       HT       0.417000        1.0080           0
     55861 WT5      1904     TIP3     OH2      OT      -0.834000       15.9994           0
     55862 WT5      1904     TIP3     H1       HT       0.417000        1.0080           0
     55863 WT5      1904     TIP3     H2       HT       0.417000        1.0080           0
     55864 WT5      1905     TIP3     OH2      OT      -0.834000       15.9994           0
     55865 WT5      1905     TIP3     H1       HT       0.417000        1.0080           0
     55866 WT5      1905     TIP3     H2       HT       0.417000        1.0080           0
     55867 WT5      1906     TIP3     OH2      OT      -0.834000       15.9994           0
     55868 WT5      1906     TIP3     H1       HT       0.417000        1.0080           0
     55869 WT5      1906     TIP3     H2       HT       0.417000        1.0080           0
     55870 WT5      1907     TIP3     OH2      OT      -0.834000       15.9994           0
     55871 WT5      1907     TIP3     H1       HT       0.417000        1.0080           0
     55872 WT5      1907     TIP3     H2       HT       0.417000        1.0080           0
     55873 WT5      1908     TIP3     OH2      OT      -0.834000       15.9994           0
     55874 WT5      1908     TIP3     H1       HT       0.417000        1.0080           0
     55875 WT5      1908     TIP3     H2       HT       0.417000        1.0080           0
     55876 WT5      1909     TIP3     OH2      OT      -0.834000       15.9994           0
     55877 WT5      1909     TIP3     H1       HT       0.417000        1.0080           0
     55878 WT5      1909     TIP3     H2       HT       0.417000        1.0080           0
     55879 WT5      1910     TIP3     OH2      OT      -0.834000       15.9994           0
     55880 WT5      1910     TIP3     H1       HT       0.417000        1.0080           0
     55881 WT5      1910     TIP3     H2       HT       0.417000        1.0080           0
     55882 WT5      1911     TIP3     OH2      OT      -0.834000       15.9994           0
     55883 WT5      1911     TIP3     H1       HT       0.417000        1.0080           0
     55884 WT5      1911     TIP3     H2       HT       0.417000        1.0080           0
     55885 WT5      1912     TIP3     OH2      OT      -0.834000       15.9994           0
     55886 WT5      1912     TIP3     H1       HT       0.417000        1.0080           0
     55887 WT5      1912     TIP3     H2       HT       0.417000        1.0080           0
     55888 WT5      1913     TIP3     OH2      OT      -0.834000       15.9994           0
     55889 WT5      1913     TIP3     H1       HT       0.417000        1.0080           0
     55890 WT5      1913     TIP3     H2       HT       0.417000        1.0080           0
     55891 WT5      1914     TIP3     OH2      OT      -0.834000       15.9994           0
     55892 WT5      1914     TIP3     H1       HT       0.417000        1.0080           0
     55893 WT5      1914     TIP3     H2       HT       0.417000        1.0080           0
     55894 WT5      1915     TIP3     OH2      OT      -0.834000       15.9994           0
     55895 WT5      1915     TIP3     H1       HT       0.417000        1.0080           0
     55896 WT5      1915     TIP3     H2       HT       0.417000        1.0080           0
     55897 WT5      1916     TIP3     OH2      OT      -0.834000       15.9994           0
     55898 WT5      1916     TIP3     H1       HT       0.417000        1.0080           0
     55899 WT5      1916     TIP3     H2       HT       0.417000        1.0080           0
     55900 WT5      1918     TIP3     OH2      OT      -0.834000       15.9994           0
     55901 WT5      1918     TIP3     H1       HT       0.417000        1.0080           0
     55902 WT5      1918     TIP3     H2       HT       0.417000        1.0080           0
     55903 WT5      1919     TIP3     OH2      OT      -0.834000       15.9994           0
     55904 WT5      1919     TIP3     H1       HT       0.417000        1.0080           0
     55905 WT5      1919     TIP3     H2       HT       0.417000        1.0080           0
     55906 WT5      1920     TIP3     OH2      OT      -0.834000       15.9994           0
     55907 WT5      1920     TIP3     H1       HT       0.417000        1.0080           0
     55908 WT5      1920     TIP3     H2       HT       0.417000        1.0080           0
     55909 WT5      1921     TIP3     OH2      OT      -0.834000       15.9994           0
     55910 WT5      1921     TIP3     H1       HT       0.417000        1.0080           0
     55911 WT5      1921     TIP3     H2       HT       0.417000        1.0080           0
     55912 WT5      1922     TIP3     OH2      OT      -0.834000       15.9994           0
     55913 WT5      1922     TIP3     H1       HT       0.417000        1.0080           0
     55914 WT5      1922     TIP3     H2       HT       0.417000        1.0080           0
     55915 WT5      1923     TIP3     OH2      OT      -0.834000       15.9994           0
     55916 WT5      1923     TIP3     H1       HT       0.417000        1.0080           0
     55917 WT5      1923     TIP3     H2       HT       0.417000        1.0080           0
     55918 WT5      1924     TIP3     OH2      OT      -0.834000       15.9994           0
     55919 WT5      1924     TIP3     H1       HT       0.417000        1.0080           0
     55920 WT5      1924     TIP3     H2       HT       0.417000        1.0080           0
     55921 WT5      1925     TIP3     OH2      OT      -0.834000       15.9994           0
     55922 WT5      1925     TIP3     H1       HT       0.417000        1.0080           0
     55923 WT5      1925     TIP3     H2       HT       0.417000        1.0080           0
     55924 WT5      1926     TIP3     OH2      OT      -0.834000       15.9994           0
     55925 WT5      1926     TIP3     H1       HT       0.417000        1.0080           0
     55926 WT5      1926     TIP3     H2       HT       0.417000        1.0080           0
     55927 WT5      1927     TIP3     OH2      OT      -0.834000       15.9994           0
     55928 WT5      1927     TIP3     H1       HT       0.417000        1.0080           0
     55929 WT5      1927     TIP3     H2       HT       0.417000        1.0080           0
     55930 WT5      1929     TIP3     OH2      OT      -0.834000       15.9994           0
     55931 WT5      1929     TIP3     H1       HT       0.417000        1.0080           0
     55932 WT5      1929     TIP3     H2       HT       0.417000        1.0080           0
     55933 WT5      1930     TIP3     OH2      OT      -0.834000       15.9994           0
     55934 WT5      1930     TIP3     H1       HT       0.417000        1.0080           0
     55935 WT5      1930     TIP3     H2       HT       0.417000        1.0080           0
     55936 WT5      1932     TIP3     OH2      OT      -0.834000       15.9994           0
     55937 WT5      1932     TIP3     H1       HT       0.417000        1.0080           0
     55938 WT5      1932     TIP3     H2       HT       0.417000        1.0080           0
     55939 WT5      1933     TIP3     OH2      OT      -0.834000       15.9994           0
     55940 WT5      1933     TIP3     H1       HT       0.417000        1.0080           0
     55941 WT5      1933     TIP3     H2       HT       0.417000        1.0080           0
     55942 WT5      1934     TIP3     OH2      OT      -0.834000       15.9994           0
     55943 WT5      1934     TIP3     H1       HT       0.417000        1.0080           0
     55944 WT5      1934     TIP3     H2       HT       0.417000        1.0080           0
     55945 WT5      1935     TIP3     OH2      OT      -0.834000       15.9994           0
     55946 WT5      1935     TIP3     H1       HT       0.417000        1.0080           0
     55947 WT5      1935     TIP3     H2       HT       0.417000        1.0080           0
     55948 WT5      1936     TIP3     OH2      OT      -0.834000       15.9994           0
     55949 WT5      1936     TIP3     H1       HT       0.417000        1.0080           0
     55950 WT5      1936     TIP3     H2       HT       0.417000        1.0080           0
     55951 WT5      1937     TIP3     OH2      OT      -0.834000       15.9994           0
     55952 WT5      1937     TIP3     H1       HT       0.417000        1.0080           0
     55953 WT5      1937     TIP3     H2       HT       0.417000        1.0080           0
     55954 WT5      1938     TIP3     OH2      OT      -0.834000       15.9994           0
     55955 WT5      1938     TIP3     H1       HT       0.417000        1.0080           0
     55956 WT5      1938     TIP3     H2       HT       0.417000        1.0080           0
     55957 WT5      1939     TIP3     OH2      OT      -0.834000       15.9994           0
     55958 WT5      1939     TIP3     H1       HT       0.417000        1.0080           0
     55959 WT5      1939     TIP3     H2       HT       0.417000        1.0080           0
     55960 WT5      1940     TIP3     OH2      OT      -0.834000       15.9994           0
     55961 WT5      1940     TIP3     H1       HT       0.417000        1.0080           0
     55962 WT5      1940     TIP3     H2       HT       0.417000        1.0080           0
     55963 WT5      1941     TIP3     OH2      OT      -0.834000       15.9994           0
     55964 WT5      1941     TIP3     H1       HT       0.417000        1.0080           0
     55965 WT5      1941     TIP3     H2       HT       0.417000        1.0080           0
     55966 WT5      1942     TIP3     OH2      OT      -0.834000       15.9994           0
     55967 WT5      1942     TIP3     H1       HT       0.417000        1.0080           0
     55968 WT5      1942     TIP3     H2       HT       0.417000        1.0080           0
     55969 WT5      1943     TIP3     OH2      OT      -0.834000       15.9994           0
     55970 WT5      1943     TIP3     H1       HT       0.417000        1.0080           0
     55971 WT5      1943     TIP3     H2       HT       0.417000        1.0080           0
     55972 WT5      1944     TIP3     OH2      OT      -0.834000       15.9994           0
     55973 WT5      1944     TIP3     H1       HT       0.417000        1.0080           0
     55974 WT5      1944     TIP3     H2       HT       0.417000        1.0080           0
     55975 WT5      1945     TIP3     OH2      OT      -0.834000       15.9994           0
     55976 WT5      1945     TIP3     H1       HT       0.417000        1.0080           0
     55977 WT5      1945     TIP3     H2       HT       0.417000        1.0080           0
     55978 WT5      1946     TIP3     OH2      OT      -0.834000       15.9994           0
     55979 WT5      1946     TIP3     H1       HT       0.417000        1.0080           0
     55980 WT5      1946     TIP3     H2       HT       0.417000        1.0080           0
     55981 WT5      1947     TIP3     OH2      OT      -0.834000       15.9994           0
     55982 WT5      1947     TIP3     H1       HT       0.417000        1.0080           0
     55983 WT5      1947     TIP3     H2       HT       0.417000        1.0080           0
     55984 WT5      1948     TIP3     OH2      OT      -0.834000       15.9994           0
     55985 WT5      1948     TIP3     H1       HT       0.417000        1.0080           0
     55986 WT5      1948     TIP3     H2       HT       0.417000        1.0080           0
     55987 WT5      1949     TIP3     OH2      OT      -0.834000       15.9994           0
     55988 WT5      1949     TIP3     H1       HT       0.417000        1.0080           0
     55989 WT5      1949     TIP3     H2       HT       0.417000        1.0080           0
     55990 WT5      1950     TIP3     OH2      OT      -0.834000       15.9994           0
     55991 WT5      1950     TIP3     H1       HT       0.417000        1.0080           0
     55992 WT5      1950     TIP3     H2       HT       0.417000        1.0080           0
     55993 WT5      1951     TIP3     OH2      OT      -0.834000       15.9994           0
     55994 WT5      1951     TIP3     H1       HT       0.417000        1.0080           0
     55995 WT5      1951     TIP3     H2       HT       0.417000        1.0080           0
     55996 WT5      1952     TIP3     OH2      OT      -0.834000       15.9994           0
     55997 WT5      1952     TIP3     H1       HT       0.417000        1.0080           0
     55998 WT5      1952     TIP3     H2       HT       0.417000        1.0080           0
     55999 WT5      1953     TIP3     OH2      OT      -0.834000       15.9994           0
     56000 WT5      1953     TIP3     H1       HT       0.417000        1.0080           0
     56001 WT5      1953     TIP3     H2       HT       0.417000        1.0080           0
     56002 WT5      1954     TIP3     OH2      OT      -0.834000       15.9994           0
     56003 WT5      1954     TIP3     H1       HT       0.417000        1.0080           0
     56004 WT5      1954     TIP3     H2       HT       0.417000        1.0080           0
     56005 WT5      1955     TIP3     OH2      OT      -0.834000       15.9994           0
     56006 WT5      1955     TIP3     H1       HT       0.417000        1.0080           0
     56007 WT5      1955     TIP3     H2       HT       0.417000        1.0080           0
     56008 WT5      1956     TIP3     OH2      OT      -0.834000       15.9994           0
     56009 WT5      1956     TIP3     H1       HT       0.417000        1.0080           0
     56010 WT5      1956     TIP3     H2       HT       0.417000        1.0080           0
     56011 WT5      1957     TIP3     OH2      OT      -0.834000       15.9994           0
     56012 WT5      1957     TIP3     H1       HT       0.417000        1.0080           0
     56013 WT5      1957     TIP3     H2       HT       0.417000        1.0080           0
     56014 WT5      1958     TIP3     OH2      OT      -0.834000       15.9994           0
     56015 WT5      1958     TIP3     H1       HT       0.417000        1.0080           0
     56016 WT5      1958     TIP3     H2       HT       0.417000        1.0080           0
     56017 WT5      1960     TIP3     OH2      OT      -0.834000       15.9994           0
     56018 WT5      1960     TIP3     H1       HT       0.417000        1.0080           0
     56019 WT5      1960     TIP3     H2       HT       0.417000        1.0080           0
     56020 WT5      1961     TIP3     OH2      OT      -0.834000       15.9994           0
     56021 WT5      1961     TIP3     H1       HT       0.417000        1.0080           0
     56022 WT5      1961     TIP3     H2       HT       0.417000        1.0080           0
     56023 WT5      1962     TIP3     OH2      OT      -0.834000       15.9994           0
     56024 WT5      1962     TIP3     H1       HT       0.417000        1.0080           0
     56025 WT5      1962     TIP3     H2       HT       0.417000        1.0080           0
     56026 WT5      1963     TIP3     OH2      OT      -0.834000       15.9994           0
     56027 WT5      1963     TIP3     H1       HT       0.417000        1.0080           0
     56028 WT5      1963     TIP3     H2       HT       0.417000        1.0080           0
     56029 WT5      1965     TIP3     OH2      OT      -0.834000       15.9994           0
     56030 WT5      1965     TIP3     H1       HT       0.417000        1.0080           0
     56031 WT5      1965     TIP3     H2       HT       0.417000        1.0080           0
     56032 WT5      1966     TIP3     OH2      OT      -0.834000       15.9994           0
     56033 WT5      1966     TIP3     H1       HT       0.417000        1.0080           0
     56034 WT5      1966     TIP3     H2       HT       0.417000        1.0080           0
     56035 WT5      1967     TIP3     OH2      OT      -0.834000       15.9994           0
     56036 WT5      1967     TIP3     H1       HT       0.417000        1.0080           0
     56037 WT5      1967     TIP3     H2       HT       0.417000        1.0080           0
     56038 WT5      1968     TIP3     OH2      OT      -0.834000       15.9994           0
     56039 WT5      1968     TIP3     H1       HT       0.417000        1.0080           0
     56040 WT5      1968     TIP3     H2       HT       0.417000        1.0080           0
     56041 WT5      1969     TIP3     OH2      OT      -0.834000       15.9994           0
     56042 WT5      1969     TIP3     H1       HT       0.417000        1.0080           0
     56043 WT5      1969     TIP3     H2       HT       0.417000        1.0080           0
     56044 WT5      1970     TIP3     OH2      OT      -0.834000       15.9994           0
     56045 WT5      1970     TIP3     H1       HT       0.417000        1.0080           0
     56046 WT5      1970     TIP3     H2       HT       0.417000        1.0080           0
     56047 WT5      1972     TIP3     OH2      OT      -0.834000       15.9994           0
     56048 WT5      1972     TIP3     H1       HT       0.417000        1.0080           0
     56049 WT5      1972     TIP3     H2       HT       0.417000        1.0080           0
     56050 WT5      1974     TIP3     OH2      OT      -0.834000       15.9994           0
     56051 WT5      1974     TIP3     H1       HT       0.417000        1.0080           0
     56052 WT5      1974     TIP3     H2       HT       0.417000        1.0080           0
     56053 WT5      1975     TIP3     OH2      OT      -0.834000       15.9994           0
     56054 WT5      1975     TIP3     H1       HT       0.417000        1.0080           0
     56055 WT5      1975     TIP3     H2       HT       0.417000        1.0080           0
     56056 WT5      1976     TIP3     OH2      OT      -0.834000       15.9994           0
     56057 WT5      1976     TIP3     H1       HT       0.417000        1.0080           0
     56058 WT5      1976     TIP3     H2       HT       0.417000        1.0080           0
     56059 WT5      1977     TIP3     OH2      OT      -0.834000       15.9994           0
     56060 WT5      1977     TIP3     H1       HT       0.417000        1.0080           0
     56061 WT5      1977     TIP3     H2       HT       0.417000        1.0080           0
     56062 WT5      1978     TIP3     OH2      OT      -0.834000       15.9994           0
     56063 WT5      1978     TIP3     H1       HT       0.417000        1.0080           0
     56064 WT5      1978     TIP3     H2       HT       0.417000        1.0080           0
     56065 WT5      1979     TIP3     OH2      OT      -0.834000       15.9994           0
     56066 WT5      1979     TIP3     H1       HT       0.417000        1.0080           0
     56067 WT5      1979     TIP3     H2       HT       0.417000        1.0080           0
     56068 WT5      1980     TIP3     OH2      OT      -0.834000       15.9994           0
     56069 WT5      1980     TIP3     H1       HT       0.417000        1.0080           0
     56070 WT5      1980     TIP3     H2       HT       0.417000        1.0080           0
     56071 WT5      1981     TIP3     OH2      OT      -0.834000       15.9994           0
     56072 WT5      1981     TIP3     H1       HT       0.417000        1.0080           0
     56073 WT5      1981     TIP3     H2       HT       0.417000        1.0080           0
     56074 WT5      1982     TIP3     OH2      OT      -0.834000       15.9994           0
     56075 WT5      1982     TIP3     H1       HT       0.417000        1.0080           0
     56076 WT5      1982     TIP3     H2       HT       0.417000        1.0080           0
     56077 WT5      1984     TIP3     OH2      OT      -0.834000       15.9994           0
     56078 WT5      1984     TIP3     H1       HT       0.417000        1.0080           0
     56079 WT5      1984     TIP3     H2       HT       0.417000        1.0080           0
     56080 WT5      1986     TIP3     OH2      OT      -0.834000       15.9994           0
     56081 WT5      1986     TIP3     H1       HT       0.417000        1.0080           0
     56082 WT5      1986     TIP3     H2       HT       0.417000        1.0080           0
     56083 WT5      1987     TIP3     OH2      OT      -0.834000       15.9994           0
     56084 WT5      1987     TIP3     H1       HT       0.417000        1.0080           0
     56085 WT5      1987     TIP3     H2       HT       0.417000        1.0080           0
     56086 WT5      1988     TIP3     OH2      OT      -0.834000       15.9994           0
     56087 WT5      1988     TIP3     H1       HT       0.417000        1.0080           0
     56088 WT5      1988     TIP3     H2       HT       0.417000        1.0080           0
     56089 WT5      1989     TIP3     OH2      OT      -0.834000       15.9994           0
     56090 WT5      1989     TIP3     H1       HT       0.417000        1.0080           0
     56091 WT5      1989     TIP3     H2       HT       0.417000        1.0080           0
     56092 WT5      1990     TIP3     OH2      OT      -0.834000       15.9994           0
     56093 WT5      1990     TIP3     H1       HT       0.417000        1.0080           0
     56094 WT5      1990     TIP3     H2       HT       0.417000        1.0080           0
     56095 WT5      1992     TIP3     OH2      OT      -0.834000       15.9994           0
     56096 WT5      1992     TIP3     H1       HT       0.417000        1.0080           0
     56097 WT5      1992     TIP3     H2       HT       0.417000        1.0080           0
     56098 WT5      1993     TIP3     OH2      OT      -0.834000       15.9994           0
     56099 WT5      1993     TIP3     H1       HT       0.417000        1.0080           0
     56100 WT5      1993     TIP3     H2       HT       0.417000        1.0080           0
     56101 WT5      1994     TIP3     OH2      OT      -0.834000       15.9994           0
     56102 WT5      1994     TIP3     H1       HT       0.417000        1.0080           0
     56103 WT5      1994     TIP3     H2       HT       0.417000        1.0080           0
     56104 WT5      1995     TIP3     OH2      OT      -0.834000       15.9994           0
     56105 WT5      1995     TIP3     H1       HT       0.417000        1.0080           0
     56106 WT5      1995     TIP3     H2       HT       0.417000        1.0080           0
     56107 WT5      1996     TIP3     OH2      OT      -0.834000       15.9994           0
     56108 WT5      1996     TIP3     H1       HT       0.417000        1.0080           0
     56109 WT5      1996     TIP3     H2       HT       0.417000        1.0080           0
     56110 WT5      1998     TIP3     OH2      OT      -0.834000       15.9994           0
     56111 WT5      1998     TIP3     H1       HT       0.417000        1.0080           0
     56112 WT5      1998     TIP3     H2       HT       0.417000        1.0080           0
     56113 WT5      1999     TIP3     OH2      OT      -0.834000       15.9994           0
     56114 WT5      1999     TIP3     H1       HT       0.417000        1.0080           0
     56115 WT5      1999     TIP3     H2       HT       0.417000        1.0080           0
     56116 WT5      2000     TIP3     OH2      OT      -0.834000       15.9994           0
     56117 WT5      2000     TIP3     H1       HT       0.417000        1.0080           0
     56118 WT5      2000     TIP3     H2       HT       0.417000        1.0080           0
     56119 WT5      2002     TIP3     OH2      OT      -0.834000       15.9994           0
     56120 WT5      2002     TIP3     H1       HT       0.417000        1.0080           0
     56121 WT5      2002     TIP3     H2       HT       0.417000        1.0080           0
     56122 WT5      2003     TIP3     OH2      OT      -0.834000       15.9994           0
     56123 WT5      2003     TIP3     H1       HT       0.417000        1.0080           0
     56124 WT5      2003     TIP3     H2       HT       0.417000        1.0080           0
     56125 WT5      2004     TIP3     OH2      OT      -0.834000       15.9994           0
     56126 WT5      2004     TIP3     H1       HT       0.417000        1.0080           0
     56127 WT5      2004     TIP3     H2       HT       0.417000        1.0080           0
     56128 WT5      2005     TIP3     OH2      OT      -0.834000       15.9994           0
     56129 WT5      2005     TIP3     H1       HT       0.417000        1.0080           0
     56130 WT5      2005     TIP3     H2       HT       0.417000        1.0080           0
     56131 WT5      2007     TIP3     OH2      OT      -0.834000       15.9994           0
     56132 WT5      2007     TIP3     H1       HT       0.417000        1.0080           0
     56133 WT5      2007     TIP3     H2       HT       0.417000        1.0080           0
     56134 WT5      2008     TIP3     OH2      OT      -0.834000       15.9994           0
     56135 WT5      2008     TIP3     H1       HT       0.417000        1.0080           0
     56136 WT5      2008     TIP3     H2       HT       0.417000        1.0080           0
     56137 WT5      2009     TIP3     OH2      OT      -0.834000       15.9994           0
     56138 WT5      2009     TIP3     H1       HT       0.417000        1.0080           0
     56139 WT5      2009     TIP3     H2       HT       0.417000        1.0080           0
     56140 WT5      2010     TIP3     OH2      OT      -0.834000       15.9994           0
     56141 WT5      2010     TIP3     H1       HT       0.417000        1.0080           0
     56142 WT5      2010     TIP3     H2       HT       0.417000        1.0080           0
     56143 WT5      2011     TIP3     OH2      OT      -0.834000       15.9994           0
     56144 WT5      2011     TIP3     H1       HT       0.417000        1.0080           0
     56145 WT5      2011     TIP3     H2       HT       0.417000        1.0080           0
     56146 WT5      2013     TIP3     OH2      OT      -0.834000       15.9994           0
     56147 WT5      2013     TIP3     H1       HT       0.417000        1.0080           0
     56148 WT5      2013     TIP3     H2       HT       0.417000        1.0080           0
     56149 WT5      2014     TIP3     OH2      OT      -0.834000       15.9994           0
     56150 WT5      2014     TIP3     H1       HT       0.417000        1.0080           0
     56151 WT5      2014     TIP3     H2       HT       0.417000        1.0080           0
     56152 WT5      2015     TIP3     OH2      OT      -0.834000       15.9994           0
     56153 WT5      2015     TIP3     H1       HT       0.417000        1.0080           0
     56154 WT5      2015     TIP3     H2       HT       0.417000        1.0080           0
     56155 WT5      2016     TIP3     OH2      OT      -0.834000       15.9994           0
     56156 WT5      2016     TIP3     H1       HT       0.417000        1.0080           0
     56157 WT5      2016     TIP3     H2       HT       0.417000        1.0080           0
     56158 WT5      2017     TIP3     OH2      OT      -0.834000       15.9994           0
     56159 WT5      2017     TIP3     H1       HT       0.417000        1.0080           0
     56160 WT5      2017     TIP3     H2       HT       0.417000        1.0080           0
     56161 WT5      2018     TIP3     OH2      OT      -0.834000       15.9994           0
     56162 WT5      2018     TIP3     H1       HT       0.417000        1.0080           0
     56163 WT5      2018     TIP3     H2       HT       0.417000        1.0080           0
     56164 WT5      2019     TIP3     OH2      OT      -0.834000       15.9994           0
     56165 WT5      2019     TIP3     H1       HT       0.417000        1.0080           0
     56166 WT5      2019     TIP3     H2       HT       0.417000        1.0080           0
     56167 WT5      2020     TIP3     OH2      OT      -0.834000       15.9994           0
     56168 WT5      2020     TIP3     H1       HT       0.417000        1.0080           0
     56169 WT5      2020     TIP3     H2       HT       0.417000        1.0080           0
     56170 WT5      2021     TIP3     OH2      OT      -0.834000       15.9994           0
     56171 WT5      2021     TIP3     H1       HT       0.417000        1.0080           0
     56172 WT5      2021     TIP3     H2       HT       0.417000        1.0080           0
     56173 WT5      2022     TIP3     OH2      OT      -0.834000       15.9994           0
     56174 WT5      2022     TIP3     H1       HT       0.417000        1.0080           0
     56175 WT5      2022     TIP3     H2       HT       0.417000        1.0080           0
     56176 WT5      2023     TIP3     OH2      OT      -0.834000       15.9994           0
     56177 WT5      2023     TIP3     H1       HT       0.417000        1.0080           0
     56178 WT5      2023     TIP3     H2       HT       0.417000        1.0080           0
     56179 WT5      2024     TIP3     OH2      OT      -0.834000       15.9994           0
     56180 WT5      2024     TIP3     H1       HT       0.417000        1.0080           0
     56181 WT5      2024     TIP3     H2       HT       0.417000        1.0080           0
     56182 WT5      2025     TIP3     OH2      OT      -0.834000       15.9994           0
     56183 WT5      2025     TIP3     H1       HT       0.417000        1.0080           0
     56184 WT5      2025     TIP3     H2       HT       0.417000        1.0080           0
     56185 WT5      2028     TIP3     OH2      OT      -0.834000       15.9994           0
     56186 WT5      2028     TIP3     H1       HT       0.417000        1.0080           0
     56187 WT5      2028     TIP3     H2       HT       0.417000        1.0080           0
     56188 WT5      2032     TIP3     OH2      OT      -0.834000       15.9994           0
     56189 WT5      2032     TIP3     H1       HT       0.417000        1.0080           0
     56190 WT5      2032     TIP3     H2       HT       0.417000        1.0080           0
     56191 WT5      2033     TIP3     OH2      OT      -0.834000       15.9994           0
     56192 WT5      2033     TIP3     H1       HT       0.417000        1.0080           0
     56193 WT5      2033     TIP3     H2       HT       0.417000        1.0080           0
     56194 WT5      2035     TIP3     OH2      OT      -0.834000       15.9994           0
     56195 WT5      2035     TIP3     H1       HT       0.417000        1.0080           0
     56196 WT5      2035     TIP3     H2       HT       0.417000        1.0080           0
     56197 WT5      2037     TIP3     OH2      OT      -0.834000       15.9994           0
     56198 WT5      2037     TIP3     H1       HT       0.417000        1.0080           0
     56199 WT5      2037     TIP3     H2       HT       0.417000        1.0080           0
     56200 WT5      2038     TIP3     OH2      OT      -0.834000       15.9994           0
     56201 WT5      2038     TIP3     H1       HT       0.417000        1.0080           0
     56202 WT5      2038     TIP3     H2       HT       0.417000        1.0080           0
     56203 WT5      2039     TIP3     OH2      OT      -0.834000       15.9994           0
     56204 WT5      2039     TIP3     H1       HT       0.417000        1.0080           0
     56205 WT5      2039     TIP3     H2       HT       0.417000        1.0080           0
     56206 WT5      2040     TIP3     OH2      OT      -0.834000       15.9994           0
     56207 WT5      2040     TIP3     H1       HT       0.417000        1.0080           0
     56208 WT5      2040     TIP3     H2       HT       0.417000        1.0080           0
     56209 WT5      2041     TIP3     OH2      OT      -0.834000       15.9994           0
     56210 WT5      2041     TIP3     H1       HT       0.417000        1.0080           0
     56211 WT5      2041     TIP3     H2       HT       0.417000        1.0080           0
     56212 WT5      2042     TIP3     OH2      OT      -0.834000       15.9994           0
     56213 WT5      2042     TIP3     H1       HT       0.417000        1.0080           0
     56214 WT5      2042     TIP3     H2       HT       0.417000        1.0080           0
     56215 WT5      2044     TIP3     OH2      OT      -0.834000       15.9994           0
     56216 WT5      2044     TIP3     H1       HT       0.417000        1.0080           0
     56217 WT5      2044     TIP3     H2       HT       0.417000        1.0080           0
     56218 WT5      2045     TIP3     OH2      OT      -0.834000       15.9994           0
     56219 WT5      2045     TIP3     H1       HT       0.417000        1.0080           0
     56220 WT5      2045     TIP3     H2       HT       0.417000        1.0080           0
     56221 WT5      2046     TIP3     OH2      OT      -0.834000       15.9994           0
     56222 WT5      2046     TIP3     H1       HT       0.417000        1.0080           0
     56223 WT5      2046     TIP3     H2       HT       0.417000        1.0080           0
     56224 WT5      2047     TIP3     OH2      OT      -0.834000       15.9994           0
     56225 WT5      2047     TIP3     H1       HT       0.417000        1.0080           0
     56226 WT5      2047     TIP3     H2       HT       0.417000        1.0080           0
     56227 WT5      2049     TIP3     OH2      OT      -0.834000       15.9994           0
     56228 WT5      2049     TIP3     H1       HT       0.417000        1.0080           0
     56229 WT5      2049     TIP3     H2       HT       0.417000        1.0080           0
     56230 WT5      2050     TIP3     OH2      OT      -0.834000       15.9994           0
     56231 WT5      2050     TIP3     H1       HT       0.417000        1.0080           0
     56232 WT5      2050     TIP3     H2       HT       0.417000        1.0080           0
     56233 WT5      2051     TIP3     OH2      OT      -0.834000       15.9994           0
     56234 WT5      2051     TIP3     H1       HT       0.417000        1.0080           0
     56235 WT5      2051     TIP3     H2       HT       0.417000        1.0080           0
     56236 WT5      2052     TIP3     OH2      OT      -0.834000       15.9994           0
     56237 WT5      2052     TIP3     H1       HT       0.417000        1.0080           0
     56238 WT5      2052     TIP3     H2       HT       0.417000        1.0080           0
     56239 WT5      2053     TIP3     OH2      OT      -0.834000       15.9994           0
     56240 WT5      2053     TIP3     H1       HT       0.417000        1.0080           0
     56241 WT5      2053     TIP3     H2       HT       0.417000        1.0080           0
     56242 WT5      2055     TIP3     OH2      OT      -0.834000       15.9994           0
     56243 WT5      2055     TIP3     H1       HT       0.417000        1.0080           0
     56244 WT5      2055     TIP3     H2       HT       0.417000        1.0080           0
     56245 WT5      2056     TIP3     OH2      OT      -0.834000       15.9994           0
     56246 WT5      2056     TIP3     H1       HT       0.417000        1.0080           0
     56247 WT5      2056     TIP3     H2       HT       0.417000        1.0080           0
     56248 WT5      2057     TIP3     OH2      OT      -0.834000       15.9994           0
     56249 WT5      2057     TIP3     H1       HT       0.417000        1.0080           0
     56250 WT5      2057     TIP3     H2       HT       0.417000        1.0080           0
     56251 WT5      2058     TIP3     OH2      OT      -0.834000       15.9994           0
     56252 WT5      2058     TIP3     H1       HT       0.417000        1.0080           0
     56253 WT5      2058     TIP3     H2       HT       0.417000        1.0080           0
     56254 WT5      2060     TIP3     OH2      OT      -0.834000       15.9994           0
     56255 WT5      2060     TIP3     H1       HT       0.417000        1.0080           0
     56256 WT5      2060     TIP3     H2       HT       0.417000        1.0080           0
     56257 WT5      2061     TIP3     OH2      OT      -0.834000       15.9994           0
     56258 WT5      2061     TIP3     H1       HT       0.417000        1.0080           0
     56259 WT5      2061     TIP3     H2       HT       0.417000        1.0080           0
     56260 WT5      2062     TIP3     OH2      OT      -0.834000       15.9994           0
     56261 WT5      2062     TIP3     H1       HT       0.417000        1.0080           0
     56262 WT5      2062     TIP3     H2       HT       0.417000        1.0080           0
     56263 WT5      2063     TIP3     OH2      OT      -0.834000       15.9994           0
     56264 WT5      2063     TIP3     H1       HT       0.417000        1.0080           0
     56265 WT5      2063     TIP3     H2       HT       0.417000        1.0080           0
     56266 WT5      2064     TIP3     OH2      OT      -0.834000       15.9994           0
     56267 WT5      2064     TIP3     H1       HT       0.417000        1.0080           0
     56268 WT5      2064     TIP3     H2       HT       0.417000        1.0080           0
     56269 WT5      2066     TIP3     OH2      OT      -0.834000       15.9994           0
     56270 WT5      2066     TIP3     H1       HT       0.417000        1.0080           0
     56271 WT5      2066     TIP3     H2       HT       0.417000        1.0080           0
     56272 WT5      2067     TIP3     OH2      OT      -0.834000       15.9994           0
     56273 WT5      2067     TIP3     H1       HT       0.417000        1.0080           0
     56274 WT5      2067     TIP3     H2       HT       0.417000        1.0080           0
     56275 WT5      2068     TIP3     OH2      OT      -0.834000       15.9994           0
     56276 WT5      2068     TIP3     H1       HT       0.417000        1.0080           0
     56277 WT5      2068     TIP3     H2       HT       0.417000        1.0080           0
     56278 WT5      2069     TIP3     OH2      OT      -0.834000       15.9994           0
     56279 WT5      2069     TIP3     H1       HT       0.417000        1.0080           0
     56280 WT5      2069     TIP3     H2       HT       0.417000        1.0080           0
     56281 WT5      2070     TIP3     OH2      OT      -0.834000       15.9994           0
     56282 WT5      2070     TIP3     H1       HT       0.417000        1.0080           0
     56283 WT5      2070     TIP3     H2       HT       0.417000        1.0080           0
     56284 WT5      2071     TIP3     OH2      OT      -0.834000       15.9994           0
     56285 WT5      2071     TIP3     H1       HT       0.417000        1.0080           0
     56286 WT5      2071     TIP3     H2       HT       0.417000        1.0080           0
     56287 WT5      2072     TIP3     OH2      OT      -0.834000       15.9994           0
     56288 WT5      2072     TIP3     H1       HT       0.417000        1.0080           0
     56289 WT5      2072     TIP3     H2       HT       0.417000        1.0080           0
     56290 WT5      2073     TIP3     OH2      OT      -0.834000       15.9994           0
     56291 WT5      2073     TIP3     H1       HT       0.417000        1.0080           0
     56292 WT5      2073     TIP3     H2       HT       0.417000        1.0080           0
     56293 WT5      2074     TIP3     OH2      OT      -0.834000       15.9994           0
     56294 WT5      2074     TIP3     H1       HT       0.417000        1.0080           0
     56295 WT5      2074     TIP3     H2       HT       0.417000        1.0080           0
     56296 WT5      2078     TIP3     OH2      OT      -0.834000       15.9994           0
     56297 WT5      2078     TIP3     H1       HT       0.417000        1.0080           0
     56298 WT5      2078     TIP3     H2       HT       0.417000        1.0080           0
     56299 WT5      2079     TIP3     OH2      OT      -0.834000       15.9994           0
     56300 WT5      2079     TIP3     H1       HT       0.417000        1.0080           0
     56301 WT5      2079     TIP3     H2       HT       0.417000        1.0080           0
     56302 WT5      2080     TIP3     OH2      OT      -0.834000       15.9994           0
     56303 WT5      2080     TIP3     H1       HT       0.417000        1.0080           0
     56304 WT5      2080     TIP3     H2       HT       0.417000        1.0080           0
     56305 WT5      2082     TIP3     OH2      OT      -0.834000       15.9994           0
     56306 WT5      2082     TIP3     H1       HT       0.417000        1.0080           0
     56307 WT5      2082     TIP3     H2       HT       0.417000        1.0080           0
     56308 WT5      2083     TIP3     OH2      OT      -0.834000       15.9994           0
     56309 WT5      2083     TIP3     H1       HT       0.417000        1.0080           0
     56310 WT5      2083     TIP3     H2       HT       0.417000        1.0080           0
     56311 WT5      2084     TIP3     OH2      OT      -0.834000       15.9994           0
     56312 WT5      2084     TIP3     H1       HT       0.417000        1.0080           0
     56313 WT5      2084     TIP3     H2       HT       0.417000        1.0080           0
     56314 WT5      2085     TIP3     OH2      OT      -0.834000       15.9994           0
     56315 WT5      2085     TIP3     H1       HT       0.417000        1.0080           0
     56316 WT5      2085     TIP3     H2       HT       0.417000        1.0080           0
     56317 WT5      2086     TIP3     OH2      OT      -0.834000       15.9994           0
     56318 WT5      2086     TIP3     H1       HT       0.417000        1.0080           0
     56319 WT5      2086     TIP3     H2       HT       0.417000        1.0080           0
     56320 WT5      2087     TIP3     OH2      OT      -0.834000       15.9994           0
     56321 WT5      2087     TIP3     H1       HT       0.417000        1.0080           0
     56322 WT5      2087     TIP3     H2       HT       0.417000        1.0080           0
     56323 WT5      2088     TIP3     OH2      OT      -0.834000       15.9994           0
     56324 WT5      2088     TIP3     H1       HT       0.417000        1.0080           0
     56325 WT5      2088     TIP3     H2       HT       0.417000        1.0080           0
     56326 WT5      2089     TIP3     OH2      OT      -0.834000       15.9994           0
     56327 WT5      2089     TIP3     H1       HT       0.417000        1.0080           0
     56328 WT5      2089     TIP3     H2       HT       0.417000        1.0080           0
     56329 WT5      2090     TIP3     OH2      OT      -0.834000       15.9994           0
     56330 WT5      2090     TIP3     H1       HT       0.417000        1.0080           0
     56331 WT5      2090     TIP3     H2       HT       0.417000        1.0080           0
     56332 WT5      2091     TIP3     OH2      OT      -0.834000       15.9994           0
     56333 WT5      2091     TIP3     H1       HT       0.417000        1.0080           0
     56334 WT5      2091     TIP3     H2       HT       0.417000        1.0080           0
     56335 WT5      2092     TIP3     OH2      OT      -0.834000       15.9994           0
     56336 WT5      2092     TIP3     H1       HT       0.417000        1.0080           0
     56337 WT5      2092     TIP3     H2       HT       0.417000        1.0080           0
     56338 WT5      2094     TIP3     OH2      OT      -0.834000       15.9994           0
     56339 WT5      2094     TIP3     H1       HT       0.417000        1.0080           0
     56340 WT5      2094     TIP3     H2       HT       0.417000        1.0080           0
     56341 WT5      2095     TIP3     OH2      OT      -0.834000       15.9994           0
     56342 WT5      2095     TIP3     H1       HT       0.417000        1.0080           0
     56343 WT5      2095     TIP3     H2       HT       0.417000        1.0080           0
     56344 WT5      2096     TIP3     OH2      OT      -0.834000       15.9994           0
     56345 WT5      2096     TIP3     H1       HT       0.417000        1.0080           0
     56346 WT5      2096     TIP3     H2       HT       0.417000        1.0080           0
     56347 WT5      2097     TIP3     OH2      OT      -0.834000       15.9994           0
     56348 WT5      2097     TIP3     H1       HT       0.417000        1.0080           0
     56349 WT5      2097     TIP3     H2       HT       0.417000        1.0080           0
     56350 WT5      2098     TIP3     OH2      OT      -0.834000       15.9994           0
     56351 WT5      2098     TIP3     H1       HT       0.417000        1.0080           0
     56352 WT5      2098     TIP3     H2       HT       0.417000        1.0080           0
     56353 WT5      2100     TIP3     OH2      OT      -0.834000       15.9994           0
     56354 WT5      2100     TIP3     H1       HT       0.417000        1.0080           0
     56355 WT5      2100     TIP3     H2       HT       0.417000        1.0080           0
     56356 WT5      2102     TIP3     OH2      OT      -0.834000       15.9994           0
     56357 WT5      2102     TIP3     H1       HT       0.417000        1.0080           0
     56358 WT5      2102     TIP3     H2       HT       0.417000        1.0080           0
     56359 WT5      2103     TIP3     OH2      OT      -0.834000       15.9994           0
     56360 WT5      2103     TIP3     H1       HT       0.417000        1.0080           0
     56361 WT5      2103     TIP3     H2       HT       0.417000        1.0080           0
     56362 WT5      2104     TIP3     OH2      OT      -0.834000       15.9994           0
     56363 WT5      2104     TIP3     H1       HT       0.417000        1.0080           0
     56364 WT5      2104     TIP3     H2       HT       0.417000        1.0080           0
     56365 WT5      2105     TIP3     OH2      OT      -0.834000       15.9994           0
     56366 WT5      2105     TIP3     H1       HT       0.417000        1.0080           0
     56367 WT5      2105     TIP3     H2       HT       0.417000        1.0080           0
     56368 WT5      2107     TIP3     OH2      OT      -0.834000       15.9994           0
     56369 WT5      2107     TIP3     H1       HT       0.417000        1.0080           0
     56370 WT5      2107     TIP3     H2       HT       0.417000        1.0080           0
     56371 WT5      2108     TIP3     OH2      OT      -0.834000       15.9994           0
     56372 WT5      2108     TIP3     H1       HT       0.417000        1.0080           0
     56373 WT5      2108     TIP3     H2       HT       0.417000        1.0080           0
     56374 WT5      2109     TIP3     OH2      OT      -0.834000       15.9994           0
     56375 WT5      2109     TIP3     H1       HT       0.417000        1.0080           0
     56376 WT5      2109     TIP3     H2       HT       0.417000        1.0080           0
     56377 WT5      2112     TIP3     OH2      OT      -0.834000       15.9994           0
     56378 WT5      2112     TIP3     H1       HT       0.417000        1.0080           0
     56379 WT5      2112     TIP3     H2       HT       0.417000        1.0080           0
     56380 WT5      2113     TIP3     OH2      OT      -0.834000       15.9994           0
     56381 WT5      2113     TIP3     H1       HT       0.417000        1.0080           0
     56382 WT5      2113     TIP3     H2       HT       0.417000        1.0080           0
     56383 WT5      2114     TIP3     OH2      OT      -0.834000       15.9994           0
     56384 WT5      2114     TIP3     H1       HT       0.417000        1.0080           0
     56385 WT5      2114     TIP3     H2       HT       0.417000        1.0080           0
     56386 WT5      2115     TIP3     OH2      OT      -0.834000       15.9994           0
     56387 WT5      2115     TIP3     H1       HT       0.417000        1.0080           0
     56388 WT5      2115     TIP3     H2       HT       0.417000        1.0080           0
     56389 WT5      2116     TIP3     OH2      OT      -0.834000       15.9994           0
     56390 WT5      2116     TIP3     H1       HT       0.417000        1.0080           0
     56391 WT5      2116     TIP3     H2       HT       0.417000        1.0080           0
     56392 WT5      2117     TIP3     OH2      OT      -0.834000       15.9994           0
     56393 WT5      2117     TIP3     H1       HT       0.417000        1.0080           0
     56394 WT5      2117     TIP3     H2       HT       0.417000        1.0080           0
     56395 WT5      2118     TIP3     OH2      OT      -0.834000       15.9994           0
     56396 WT5      2118     TIP3     H1       HT       0.417000        1.0080           0
     56397 WT5      2118     TIP3     H2       HT       0.417000        1.0080           0
     56398 WT5      2119     TIP3     OH2      OT      -0.834000       15.9994           0
     56399 WT5      2119     TIP3     H1       HT       0.417000        1.0080           0
     56400 WT5      2119     TIP3     H2       HT       0.417000        1.0080           0
     56401 WT5      2120     TIP3     OH2      OT      -0.834000       15.9994           0
     56402 WT5      2120     TIP3     H1       HT       0.417000        1.0080           0
     56403 WT5      2120     TIP3     H2       HT       0.417000        1.0080           0
     56404 WT5      2121     TIP3     OH2      OT      -0.834000       15.9994           0
     56405 WT5      2121     TIP3     H1       HT       0.417000        1.0080           0
     56406 WT5      2121     TIP3     H2       HT       0.417000        1.0080           0
     56407 WT5      2122     TIP3     OH2      OT      -0.834000       15.9994           0
     56408 WT5      2122     TIP3     H1       HT       0.417000        1.0080           0
     56409 WT5      2122     TIP3     H2       HT       0.417000        1.0080           0
     56410 WT5      2123     TIP3     OH2      OT      -0.834000       15.9994           0
     56411 WT5      2123     TIP3     H1       HT       0.417000        1.0080           0
     56412 WT5      2123     TIP3     H2       HT       0.417000        1.0080           0
     56413 WT5      2124     TIP3     OH2      OT      -0.834000       15.9994           0
     56414 WT5      2124     TIP3     H1       HT       0.417000        1.0080           0
     56415 WT5      2124     TIP3     H2       HT       0.417000        1.0080           0
     56416 WT5      2125     TIP3     OH2      OT      -0.834000       15.9994           0
     56417 WT5      2125     TIP3     H1       HT       0.417000        1.0080           0
     56418 WT5      2125     TIP3     H2       HT       0.417000        1.0080           0
     56419 WT5      2126     TIP3     OH2      OT      -0.834000       15.9994           0
     56420 WT5      2126     TIP3     H1       HT       0.417000        1.0080           0
     56421 WT5      2126     TIP3     H2       HT       0.417000        1.0080           0
     56422 WT5      2127     TIP3     OH2      OT      -0.834000       15.9994           0
     56423 WT5      2127     TIP3     H1       HT       0.417000        1.0080           0
     56424 WT5      2127     TIP3     H2       HT       0.417000        1.0080           0
     56425 WT5      2128     TIP3     OH2      OT      -0.834000       15.9994           0
     56426 WT5      2128     TIP3     H1       HT       0.417000        1.0080           0
     56427 WT5      2128     TIP3     H2       HT       0.417000        1.0080           0
     56428 WT5      2129     TIP3     OH2      OT      -0.834000       15.9994           0
     56429 WT5      2129     TIP3     H1       HT       0.417000        1.0080           0
     56430 WT5      2129     TIP3     H2       HT       0.417000        1.0080           0
     56431 WT5      2131     TIP3     OH2      OT      -0.834000       15.9994           0
     56432 WT5      2131     TIP3     H1       HT       0.417000        1.0080           0
     56433 WT5      2131     TIP3     H2       HT       0.417000        1.0080           0
     56434 WT5      2132     TIP3     OH2      OT      -0.834000       15.9994           0
     56435 WT5      2132     TIP3     H1       HT       0.417000        1.0080           0
     56436 WT5      2132     TIP3     H2       HT       0.417000        1.0080           0
     56437 WT5      2133     TIP3     OH2      OT      -0.834000       15.9994           0
     56438 WT5      2133     TIP3     H1       HT       0.417000        1.0080           0
     56439 WT5      2133     TIP3     H2       HT       0.417000        1.0080           0
     56440 WT5      2134     TIP3     OH2      OT      -0.834000       15.9994           0
     56441 WT5      2134     TIP3     H1       HT       0.417000        1.0080           0
     56442 WT5      2134     TIP3     H2       HT       0.417000        1.0080           0
     56443 WT5      2135     TIP3     OH2      OT      -0.834000       15.9994           0
     56444 WT5      2135     TIP3     H1       HT       0.417000        1.0080           0
     56445 WT5      2135     TIP3     H2       HT       0.417000        1.0080           0
     56446 WT5      2136     TIP3     OH2      OT      -0.834000       15.9994           0
     56447 WT5      2136     TIP3     H1       HT       0.417000        1.0080           0
     56448 WT5      2136     TIP3     H2       HT       0.417000        1.0080           0
     56449 WT5      2138     TIP3     OH2      OT      -0.834000       15.9994           0
     56450 WT5      2138     TIP3     H1       HT       0.417000        1.0080           0
     56451 WT5      2138     TIP3     H2       HT       0.417000        1.0080           0
     56452 WT5      2139     TIP3     OH2      OT      -0.834000       15.9994           0
     56453 WT5      2139     TIP3     H1       HT       0.417000        1.0080           0
     56454 WT5      2139     TIP3     H2       HT       0.417000        1.0080           0
     56455 WT5      2141     TIP3     OH2      OT      -0.834000       15.9994           0
     56456 WT5      2141     TIP3     H1       HT       0.417000        1.0080           0
     56457 WT5      2141     TIP3     H2       HT       0.417000        1.0080           0
     56458 WT5      2143     TIP3     OH2      OT      -0.834000       15.9994           0
     56459 WT5      2143     TIP3     H1       HT       0.417000        1.0080           0
     56460 WT5      2143     TIP3     H2       HT       0.417000        1.0080           0
     56461 WT5      2144     TIP3     OH2      OT      -0.834000       15.9994           0
     56462 WT5      2144     TIP3     H1       HT       0.417000        1.0080           0
     56463 WT5      2144     TIP3     H2       HT       0.417000        1.0080           0
     56464 WT5      2145     TIP3     OH2      OT      -0.834000       15.9994           0
     56465 WT5      2145     TIP3     H1       HT       0.417000        1.0080           0
     56466 WT5      2145     TIP3     H2       HT       0.417000        1.0080           0
     56467 WT5      2146     TIP3     OH2      OT      -0.834000       15.9994           0
     56468 WT5      2146     TIP3     H1       HT       0.417000        1.0080           0
     56469 WT5      2146     TIP3     H2       HT       0.417000        1.0080           0
     56470 WT5      2147     TIP3     OH2      OT      -0.834000       15.9994           0
     56471 WT5      2147     TIP3     H1       HT       0.417000        1.0080           0
     56472 WT5      2147     TIP3     H2       HT       0.417000        1.0080           0
     56473 WT5      2148     TIP3     OH2      OT      -0.834000       15.9994           0
     56474 WT5      2148     TIP3     H1       HT       0.417000        1.0080           0
     56475 WT5      2148     TIP3     H2       HT       0.417000        1.0080           0
     56476 WT5      2150     TIP3     OH2      OT      -0.834000       15.9994           0
     56477 WT5      2150     TIP3     H1       HT       0.417000        1.0080           0
     56478 WT5      2150     TIP3     H2       HT       0.417000        1.0080           0
     56479 WT5      2151     TIP3     OH2      OT      -0.834000       15.9994           0
     56480 WT5      2151     TIP3     H1       HT       0.417000        1.0080           0
     56481 WT5      2151     TIP3     H2       HT       0.417000        1.0080           0
     56482 WT5      2153     TIP3     OH2      OT      -0.834000       15.9994           0
     56483 WT5      2153     TIP3     H1       HT       0.417000        1.0080           0
     56484 WT5      2153     TIP3     H2       HT       0.417000        1.0080           0
     56485 WT5      2154     TIP3     OH2      OT      -0.834000       15.9994           0
     56486 WT5      2154     TIP3     H1       HT       0.417000        1.0080           0
     56487 WT5      2154     TIP3     H2       HT       0.417000        1.0080           0
     56488 WT5      2156     TIP3     OH2      OT      -0.834000       15.9994           0
     56489 WT5      2156     TIP3     H1       HT       0.417000        1.0080           0
     56490 WT5      2156     TIP3     H2       HT       0.417000        1.0080           0
     56491 WT5      2158     TIP3     OH2      OT      -0.834000       15.9994           0
     56492 WT5      2158     TIP3     H1       HT       0.417000        1.0080           0
     56493 WT5      2158     TIP3     H2       HT       0.417000        1.0080           0
     56494 WT5      2159     TIP3     OH2      OT      -0.834000       15.9994           0
     56495 WT5      2159     TIP3     H1       HT       0.417000        1.0080           0
     56496 WT5      2159     TIP3     H2       HT       0.417000        1.0080           0
     56497 WT5      2160     TIP3     OH2      OT      -0.834000       15.9994           0
     56498 WT5      2160     TIP3     H1       HT       0.417000        1.0080           0
     56499 WT5      2160     TIP3     H2       HT       0.417000        1.0080           0
     56500 WT5      2161     TIP3     OH2      OT      -0.834000       15.9994           0
     56501 WT5      2161     TIP3     H1       HT       0.417000        1.0080           0
     56502 WT5      2161     TIP3     H2       HT       0.417000        1.0080           0
     56503 WT5      2162     TIP3     OH2      OT      -0.834000       15.9994           0
     56504 WT5      2162     TIP3     H1       HT       0.417000        1.0080           0
     56505 WT5      2162     TIP3     H2       HT       0.417000        1.0080           0
     56506 WT5      2163     TIP3     OH2      OT      -0.834000       15.9994           0
     56507 WT5      2163     TIP3     H1       HT       0.417000        1.0080           0
     56508 WT5      2163     TIP3     H2       HT       0.417000        1.0080           0
     56509 WT5      2165     TIP3     OH2      OT      -0.834000       15.9994           0
     56510 WT5      2165     TIP3     H1       HT       0.417000        1.0080           0
     56511 WT5      2165     TIP3     H2       HT       0.417000        1.0080           0
     56512 WT5      2166     TIP3     OH2      OT      -0.834000       15.9994           0
     56513 WT5      2166     TIP3     H1       HT       0.417000        1.0080           0
     56514 WT5      2166     TIP3     H2       HT       0.417000        1.0080           0
     56515 WT5      2167     TIP3     OH2      OT      -0.834000       15.9994           0
     56516 WT5      2167     TIP3     H1       HT       0.417000        1.0080           0
     56517 WT5      2167     TIP3     H2       HT       0.417000        1.0080           0
     56518 WT5      2168     TIP3     OH2      OT      -0.834000       15.9994           0
     56519 WT5      2168     TIP3     H1       HT       0.417000        1.0080           0
     56520 WT5      2168     TIP3     H2       HT       0.417000        1.0080           0
     56521 WT5      2169     TIP3     OH2      OT      -0.834000       15.9994           0
     56522 WT5      2169     TIP3     H1       HT       0.417000        1.0080           0
     56523 WT5      2169     TIP3     H2       HT       0.417000        1.0080           0
     56524 WT5      2170     TIP3     OH2      OT      -0.834000       15.9994           0
     56525 WT5      2170     TIP3     H1       HT       0.417000        1.0080           0
     56526 WT5      2170     TIP3     H2       HT       0.417000        1.0080           0
     56527 WT5      2171     TIP3     OH2      OT      -0.834000       15.9994           0
     56528 WT5      2171     TIP3     H1       HT       0.417000        1.0080           0
     56529 WT5      2171     TIP3     H2       HT       0.417000        1.0080           0
     56530 WT5      2172     TIP3     OH2      OT      -0.834000       15.9994           0
     56531 WT5      2172     TIP3     H1       HT       0.417000        1.0080           0
     56532 WT5      2172     TIP3     H2       HT       0.417000        1.0080           0
     56533 WT5      2173     TIP3     OH2      OT      -0.834000       15.9994           0
     56534 WT5      2173     TIP3     H1       HT       0.417000        1.0080           0
     56535 WT5      2173     TIP3     H2       HT       0.417000        1.0080           0
     56536 WT5      2174     TIP3     OH2      OT      -0.834000       15.9994           0
     56537 WT5      2174     TIP3     H1       HT       0.417000        1.0080           0
     56538 WT5      2174     TIP3     H2       HT       0.417000        1.0080           0
     56539 WT5      2176     TIP3     OH2      OT      -0.834000       15.9994           0
     56540 WT5      2176     TIP3     H1       HT       0.417000        1.0080           0
     56541 WT5      2176     TIP3     H2       HT       0.417000        1.0080           0
     56542 WT5      2177     TIP3     OH2      OT      -0.834000       15.9994           0
     56543 WT5      2177     TIP3     H1       HT       0.417000        1.0080           0
     56544 WT5      2177     TIP3     H2       HT       0.417000        1.0080           0
     56545 WT5      2178     TIP3     OH2      OT      -0.834000       15.9994           0
     56546 WT5      2178     TIP3     H1       HT       0.417000        1.0080           0
     56547 WT5      2178     TIP3     H2       HT       0.417000        1.0080           0
     56548 WT5      2179     TIP3     OH2      OT      -0.834000       15.9994           0
     56549 WT5      2179     TIP3     H1       HT       0.417000        1.0080           0
     56550 WT5      2179     TIP3     H2       HT       0.417000        1.0080           0
     56551 WT5      2180     TIP3     OH2      OT      -0.834000       15.9994           0
     56552 WT5      2180     TIP3     H1       HT       0.417000        1.0080           0
     56553 WT5      2180     TIP3     H2       HT       0.417000        1.0080           0
     56554 WT5      2181     TIP3     OH2      OT      -0.834000       15.9994           0
     56555 WT5      2181     TIP3     H1       HT       0.417000        1.0080           0
     56556 WT5      2181     TIP3     H2       HT       0.417000        1.0080           0
     56557 WT5      2182     TIP3     OH2      OT      -0.834000       15.9994           0
     56558 WT5      2182     TIP3     H1       HT       0.417000        1.0080           0
     56559 WT5      2182     TIP3     H2       HT       0.417000        1.0080           0
     56560 WT5      2183     TIP3     OH2      OT      -0.834000       15.9994           0
     56561 WT5      2183     TIP3     H1       HT       0.417000        1.0080           0
     56562 WT5      2183     TIP3     H2       HT       0.417000        1.0080           0
     56563 WT5      2184     TIP3     OH2      OT      -0.834000       15.9994           0
     56564 WT5      2184     TIP3     H1       HT       0.417000        1.0080           0
     56565 WT5      2184     TIP3     H2       HT       0.417000        1.0080           0
     56566 WT5      2185     TIP3     OH2      OT      -0.834000       15.9994           0
     56567 WT5      2185     TIP3     H1       HT       0.417000        1.0080           0
     56568 WT5      2185     TIP3     H2       HT       0.417000        1.0080           0
     56569 WT5      2186     TIP3     OH2      OT      -0.834000       15.9994           0
     56570 WT5      2186     TIP3     H1       HT       0.417000        1.0080           0
     56571 WT5      2186     TIP3     H2       HT       0.417000        1.0080           0
     56572 WT5      2187     TIP3     OH2      OT      -0.834000       15.9994           0
     56573 WT5      2187     TIP3     H1       HT       0.417000        1.0080           0
     56574 WT5      2187     TIP3     H2       HT       0.417000        1.0080           0
     56575 WT5      2188     TIP3     OH2      OT      -0.834000       15.9994           0
     56576 WT5      2188     TIP3     H1       HT       0.417000        1.0080           0
     56577 WT5      2188     TIP3     H2       HT       0.417000        1.0080           0
     56578 WT5      2189     TIP3     OH2      OT      -0.834000       15.9994           0
     56579 WT5      2189     TIP3     H1       HT       0.417000        1.0080           0
     56580 WT5      2189     TIP3     H2       HT       0.417000        1.0080           0
     56581 WT5      2190     TIP3     OH2      OT      -0.834000       15.9994           0
     56582 WT5      2190     TIP3     H1       HT       0.417000        1.0080           0
     56583 WT5      2190     TIP3     H2       HT       0.417000        1.0080           0
     56584 WT5      2193     TIP3     OH2      OT      -0.834000       15.9994           0
     56585 WT5      2193     TIP3     H1       HT       0.417000        1.0080           0
     56586 WT5      2193     TIP3     H2       HT       0.417000        1.0080           0
     56587 WT5      2194     TIP3     OH2      OT      -0.834000       15.9994           0
     56588 WT5      2194     TIP3     H1       HT       0.417000        1.0080           0
     56589 WT5      2194     TIP3     H2       HT       0.417000        1.0080           0
     56590 WT5      2197     TIP3     OH2      OT      -0.834000       15.9994           0
     56591 WT5      2197     TIP3     H1       HT       0.417000        1.0080           0
     56592 WT5      2197     TIP3     H2       HT       0.417000        1.0080           0
     56593 WT5      2198     TIP3     OH2      OT      -0.834000       15.9994           0
     56594 WT5      2198     TIP3     H1       HT       0.417000        1.0080           0
     56595 WT5      2198     TIP3     H2       HT       0.417000        1.0080           0
     56596 WT5      2200     TIP3     OH2      OT      -0.834000       15.9994           0
     56597 WT5      2200     TIP3     H1       HT       0.417000        1.0080           0
     56598 WT5      2200     TIP3     H2       HT       0.417000        1.0080           0
     56599 WT5      2201     TIP3     OH2      OT      -0.834000       15.9994           0
     56600 WT5      2201     TIP3     H1       HT       0.417000        1.0080           0
     56601 WT5      2201     TIP3     H2       HT       0.417000        1.0080           0
     56602 WT5      2202     TIP3     OH2      OT      -0.834000       15.9994           0
     56603 WT5      2202     TIP3     H1       HT       0.417000        1.0080           0
     56604 WT5      2202     TIP3     H2       HT       0.417000        1.0080           0
     56605 WT5      2204     TIP3     OH2      OT      -0.834000       15.9994           0
     56606 WT5      2204     TIP3     H1       HT       0.417000        1.0080           0
     56607 WT5      2204     TIP3     H2       HT       0.417000        1.0080           0
     56608 WT5      2207     TIP3     OH2      OT      -0.834000       15.9994           0
     56609 WT5      2207     TIP3     H1       HT       0.417000        1.0080           0
     56610 WT5      2207     TIP3     H2       HT       0.417000        1.0080           0
     56611 WT5      2209     TIP3     OH2      OT      -0.834000       15.9994           0
     56612 WT5      2209     TIP3     H1       HT       0.417000        1.0080           0
     56613 WT5      2209     TIP3     H2       HT       0.417000        1.0080           0
     56614 WT5      2210     TIP3     OH2      OT      -0.834000       15.9994           0
     56615 WT5      2210     TIP3     H1       HT       0.417000        1.0080           0
     56616 WT5      2210     TIP3     H2       HT       0.417000        1.0080           0
     56617 WT5      2211     TIP3     OH2      OT      -0.834000       15.9994           0
     56618 WT5      2211     TIP3     H1       HT       0.417000        1.0080           0
     56619 WT5      2211     TIP3     H2       HT       0.417000        1.0080           0
     56620 WT5      2212     TIP3     OH2      OT      -0.834000       15.9994           0
     56621 WT5      2212     TIP3     H1       HT       0.417000        1.0080           0
     56622 WT5      2212     TIP3     H2       HT       0.417000        1.0080           0
     56623 WT5      2216     TIP3     OH2      OT      -0.834000       15.9994           0
     56624 WT5      2216     TIP3     H1       HT       0.417000        1.0080           0
     56625 WT5      2216     TIP3     H2       HT       0.417000        1.0080           0
     56626 WT5      2217     TIP3     OH2      OT      -0.834000       15.9994           0
     56627 WT5      2217     TIP3     H1       HT       0.417000        1.0080           0
     56628 WT5      2217     TIP3     H2       HT       0.417000        1.0080           0
     56629 WT5      2218     TIP3     OH2      OT      -0.834000       15.9994           0
     56630 WT5      2218     TIP3     H1       HT       0.417000        1.0080           0
     56631 WT5      2218     TIP3     H2       HT       0.417000        1.0080           0
     56632 WT5      2219     TIP3     OH2      OT      -0.834000       15.9994           0
     56633 WT5      2219     TIP3     H1       HT       0.417000        1.0080           0
     56634 WT5      2219     TIP3     H2       HT       0.417000        1.0080           0
     56635 WT5      2220     TIP3     OH2      OT      -0.834000       15.9994           0
     56636 WT5      2220     TIP3     H1       HT       0.417000        1.0080           0
     56637 WT5      2220     TIP3     H2       HT       0.417000        1.0080           0
     56638 WT5      2221     TIP3     OH2      OT      -0.834000       15.9994           0
     56639 WT5      2221     TIP3     H1       HT       0.417000        1.0080           0
     56640 WT5      2221     TIP3     H2       HT       0.417000        1.0080           0
     56641 WT5      2223     TIP3     OH2      OT      -0.834000       15.9994           0
     56642 WT5      2223     TIP3     H1       HT       0.417000        1.0080           0
     56643 WT5      2223     TIP3     H2       HT       0.417000        1.0080           0
     56644 WT5      2224     TIP3     OH2      OT      -0.834000       15.9994           0
     56645 WT5      2224     TIP3     H1       HT       0.417000        1.0080           0
     56646 WT5      2224     TIP3     H2       HT       0.417000        1.0080           0
     56647 WT5      2225     TIP3     OH2      OT      -0.834000       15.9994           0
     56648 WT5      2225     TIP3     H1       HT       0.417000        1.0080           0
     56649 WT5      2225     TIP3     H2       HT       0.417000        1.0080           0
     56650 WT5      2226     TIP3     OH2      OT      -0.834000       15.9994           0
     56651 WT5      2226     TIP3     H1       HT       0.417000        1.0080           0
     56652 WT5      2226     TIP3     H2       HT       0.417000        1.0080           0
     56653 WT5      2227     TIP3     OH2      OT      -0.834000       15.9994           0
     56654 WT5      2227     TIP3     H1       HT       0.417000        1.0080           0
     56655 WT5      2227     TIP3     H2       HT       0.417000        1.0080           0
     56656 WT5      2229     TIP3     OH2      OT      -0.834000       15.9994           0
     56657 WT5      2229     TIP3     H1       HT       0.417000        1.0080           0
     56658 WT5      2229     TIP3     H2       HT       0.417000        1.0080           0
     56659 WT5      2231     TIP3     OH2      OT      -0.834000       15.9994           0
     56660 WT5      2231     TIP3     H1       HT       0.417000        1.0080           0
     56661 WT5      2231     TIP3     H2       HT       0.417000        1.0080           0
     56662 WT5      2232     TIP3     OH2      OT      -0.834000       15.9994           0
     56663 WT5      2232     TIP3     H1       HT       0.417000        1.0080           0
     56664 WT5      2232     TIP3     H2       HT       0.417000        1.0080           0
     56665 WT5      2233     TIP3     OH2      OT      -0.834000       15.9994           0
     56666 WT5      2233     TIP3     H1       HT       0.417000        1.0080           0
     56667 WT5      2233     TIP3     H2       HT       0.417000        1.0080           0
     56668 WT5      2234     TIP3     OH2      OT      -0.834000       15.9994           0
     56669 WT5      2234     TIP3     H1       HT       0.417000        1.0080           0
     56670 WT5      2234     TIP3     H2       HT       0.417000        1.0080           0
     56671 WT5      2236     TIP3     OH2      OT      -0.834000       15.9994           0
     56672 WT5      2236     TIP3     H1       HT       0.417000        1.0080           0
     56673 WT5      2236     TIP3     H2       HT       0.417000        1.0080           0
     56674 WT5      2238     TIP3     OH2      OT      -0.834000       15.9994           0
     56675 WT5      2238     TIP3     H1       HT       0.417000        1.0080           0
     56676 WT5      2238     TIP3     H2       HT       0.417000        1.0080           0
     56677 WT5      2240     TIP3     OH2      OT      -0.834000       15.9994           0
     56678 WT5      2240     TIP3     H1       HT       0.417000        1.0080           0
     56679 WT5      2240     TIP3     H2       HT       0.417000        1.0080           0
     56680 WT5      2241     TIP3     OH2      OT      -0.834000       15.9994           0
     56681 WT5      2241     TIP3     H1       HT       0.417000        1.0080           0
     56682 WT5      2241     TIP3     H2       HT       0.417000        1.0080           0
     56683 WT5      2242     TIP3     OH2      OT      -0.834000       15.9994           0
     56684 WT5      2242     TIP3     H1       HT       0.417000        1.0080           0
     56685 WT5      2242     TIP3     H2       HT       0.417000        1.0080           0
     56686 WT5      2243     TIP3     OH2      OT      -0.834000       15.9994           0
     56687 WT5      2243     TIP3     H1       HT       0.417000        1.0080           0
     56688 WT5      2243     TIP3     H2       HT       0.417000        1.0080           0
     56689 WT5      2244     TIP3     OH2      OT      -0.834000       15.9994           0
     56690 WT5      2244     TIP3     H1       HT       0.417000        1.0080           0
     56691 WT5      2244     TIP3     H2       HT       0.417000        1.0080           0
     56692 WT5      2245     TIP3     OH2      OT      -0.834000       15.9994           0
     56693 WT5      2245     TIP3     H1       HT       0.417000        1.0080           0
     56694 WT5      2245     TIP3     H2       HT       0.417000        1.0080           0
     56695 WT5      2247     TIP3     OH2      OT      -0.834000       15.9994           0
     56696 WT5      2247     TIP3     H1       HT       0.417000        1.0080           0
     56697 WT5      2247     TIP3     H2       HT       0.417000        1.0080           0
     56698 WT5      2248     TIP3     OH2      OT      -0.834000       15.9994           0
     56699 WT5      2248     TIP3     H1       HT       0.417000        1.0080           0
     56700 WT5      2248     TIP3     H2       HT       0.417000        1.0080           0
     56701 WT5      2249     TIP3     OH2      OT      -0.834000       15.9994           0
     56702 WT5      2249     TIP3     H1       HT       0.417000        1.0080           0
     56703 WT5      2249     TIP3     H2       HT       0.417000        1.0080           0
     56704 WT5      2250     TIP3     OH2      OT      -0.834000       15.9994           0
     56705 WT5      2250     TIP3     H1       HT       0.417000        1.0080           0
     56706 WT5      2250     TIP3     H2       HT       0.417000        1.0080           0
     56707 WT5      2251     TIP3     OH2      OT      -0.834000       15.9994           0
     56708 WT5      2251     TIP3     H1       HT       0.417000        1.0080           0
     56709 WT5      2251     TIP3     H2       HT       0.417000        1.0080           0
     56710 WT5      2252     TIP3     OH2      OT      -0.834000       15.9994           0
     56711 WT5      2252     TIP3     H1       HT       0.417000        1.0080           0
     56712 WT5      2252     TIP3     H2       HT       0.417000        1.0080           0
     56713 WT5      2253     TIP3     OH2      OT      -0.834000       15.9994           0
     56714 WT5      2253     TIP3     H1       HT       0.417000        1.0080           0
     56715 WT5      2253     TIP3     H2       HT       0.417000        1.0080           0
     56716 WT5      2254     TIP3     OH2      OT      -0.834000       15.9994           0
     56717 WT5      2254     TIP3     H1       HT       0.417000        1.0080           0
     56718 WT5      2254     TIP3     H2       HT       0.417000        1.0080           0
     56719 WT5      2255     TIP3     OH2      OT      -0.834000       15.9994           0
     56720 WT5      2255     TIP3     H1       HT       0.417000        1.0080           0
     56721 WT5      2255     TIP3     H2       HT       0.417000        1.0080           0
     56722 WT5      2256     TIP3     OH2      OT      -0.834000       15.9994           0
     56723 WT5      2256     TIP3     H1       HT       0.417000        1.0080           0
     56724 WT5      2256     TIP3     H2       HT       0.417000        1.0080           0
     56725 WT5      2257     TIP3     OH2      OT      -0.834000       15.9994           0
     56726 WT5      2257     TIP3     H1       HT       0.417000        1.0080           0
     56727 WT5      2257     TIP3     H2       HT       0.417000        1.0080           0
     56728 WT5      2258     TIP3     OH2      OT      -0.834000       15.9994           0
     56729 WT5      2258     TIP3     H1       HT       0.417000        1.0080           0
     56730 WT5      2258     TIP3     H2       HT       0.417000        1.0080           0
     56731 WT5      2260     TIP3     OH2      OT      -0.834000       15.9994           0
     56732 WT5      2260     TIP3     H1       HT       0.417000        1.0080           0
     56733 WT5      2260     TIP3     H2       HT       0.417000        1.0080           0
     56734 WT5      2261     TIP3     OH2      OT      -0.834000       15.9994           0
     56735 WT5      2261     TIP3     H1       HT       0.417000        1.0080           0
     56736 WT5      2261     TIP3     H2       HT       0.417000        1.0080           0
     56737 WT5      2262     TIP3     OH2      OT      -0.834000       15.9994           0
     56738 WT5      2262     TIP3     H1       HT       0.417000        1.0080           0
     56739 WT5      2262     TIP3     H2       HT       0.417000        1.0080           0
     56740 WT5      2263     TIP3     OH2      OT      -0.834000       15.9994           0
     56741 WT5      2263     TIP3     H1       HT       0.417000        1.0080           0
     56742 WT5      2263     TIP3     H2       HT       0.417000        1.0080           0
     56743 WT5      2264     TIP3     OH2      OT      -0.834000       15.9994           0
     56744 WT5      2264     TIP3     H1       HT       0.417000        1.0080           0
     56745 WT5      2264     TIP3     H2       HT       0.417000        1.0080           0
     56746 WT5      2265     TIP3     OH2      OT      -0.834000       15.9994           0
     56747 WT5      2265     TIP3     H1       HT       0.417000        1.0080           0
     56748 WT5      2265     TIP3     H2       HT       0.417000        1.0080           0
     56749 WT5      2267     TIP3     OH2      OT      -0.834000       15.9994           0
     56750 WT5      2267     TIP3     H1       HT       0.417000        1.0080           0
     56751 WT5      2267     TIP3     H2       HT       0.417000        1.0080           0
     56752 WT5      2268     TIP3     OH2      OT      -0.834000       15.9994           0
     56753 WT5      2268     TIP3     H1       HT       0.417000        1.0080           0
     56754 WT5      2268     TIP3     H2       HT       0.417000        1.0080           0
     56755 WT5      2269     TIP3     OH2      OT      -0.834000       15.9994           0
     56756 WT5      2269     TIP3     H1       HT       0.417000        1.0080           0
     56757 WT5      2269     TIP3     H2       HT       0.417000        1.0080           0
     56758 WT5      2270     TIP3     OH2      OT      -0.834000       15.9994           0
     56759 WT5      2270     TIP3     H1       HT       0.417000        1.0080           0
     56760 WT5      2270     TIP3     H2       HT       0.417000        1.0080           0
     56761 WT5      2271     TIP3     OH2      OT      -0.834000       15.9994           0
     56762 WT5      2271     TIP3     H1       HT       0.417000        1.0080           0
     56763 WT5      2271     TIP3     H2       HT       0.417000        1.0080           0
     56764 WT5      2272     TIP3     OH2      OT      -0.834000       15.9994           0
     56765 WT5      2272     TIP3     H1       HT       0.417000        1.0080           0
     56766 WT5      2272     TIP3     H2       HT       0.417000        1.0080           0
     56767 WT5      2274     TIP3     OH2      OT      -0.834000       15.9994           0
     56768 WT5      2274     TIP3     H1       HT       0.417000        1.0080           0
     56769 WT5      2274     TIP3     H2       HT       0.417000        1.0080           0
     56770 WT5      2275     TIP3     OH2      OT      -0.834000       15.9994           0
     56771 WT5      2275     TIP3     H1       HT       0.417000        1.0080           0
     56772 WT5      2275     TIP3     H2       HT       0.417000        1.0080           0
     56773 WT5      2276     TIP3     OH2      OT      -0.834000       15.9994           0
     56774 WT5      2276     TIP3     H1       HT       0.417000        1.0080           0
     56775 WT5      2276     TIP3     H2       HT       0.417000        1.0080           0
     56776 WT5      2277     TIP3     OH2      OT      -0.834000       15.9994           0
     56777 WT5      2277     TIP3     H1       HT       0.417000        1.0080           0
     56778 WT5      2277     TIP3     H2       HT       0.417000        1.0080           0
     56779 WT5      2278     TIP3     OH2      OT      -0.834000       15.9994           0
     56780 WT5      2278     TIP3     H1       HT       0.417000        1.0080           0
     56781 WT5      2278     TIP3     H2       HT       0.417000        1.0080           0
     56782 WT5      2280     TIP3     OH2      OT      -0.834000       15.9994           0
     56783 WT5      2280     TIP3     H1       HT       0.417000        1.0080           0
     56784 WT5      2280     TIP3     H2       HT       0.417000        1.0080           0
     56785 WT5      2281     TIP3     OH2      OT      -0.834000       15.9994           0
     56786 WT5      2281     TIP3     H1       HT       0.417000        1.0080           0
     56787 WT5      2281     TIP3     H2       HT       0.417000        1.0080           0
     56788 WT5      2282     TIP3     OH2      OT      -0.834000       15.9994           0
     56789 WT5      2282     TIP3     H1       HT       0.417000        1.0080           0
     56790 WT5      2282     TIP3     H2       HT       0.417000        1.0080           0
     56791 WT5      2283     TIP3     OH2      OT      -0.834000       15.9994           0
     56792 WT5      2283     TIP3     H1       HT       0.417000        1.0080           0
     56793 WT5      2283     TIP3     H2       HT       0.417000        1.0080           0
     56794 WT5      2284     TIP3     OH2      OT      -0.834000       15.9994           0
     56795 WT5      2284     TIP3     H1       HT       0.417000        1.0080           0
     56796 WT5      2284     TIP3     H2       HT       0.417000        1.0080           0
     56797 WT5      2286     TIP3     OH2      OT      -0.834000       15.9994           0
     56798 WT5      2286     TIP3     H1       HT       0.417000        1.0080           0
     56799 WT5      2286     TIP3     H2       HT       0.417000        1.0080           0
     56800 WT5      2287     TIP3     OH2      OT      -0.834000       15.9994           0
     56801 WT5      2287     TIP3     H1       HT       0.417000        1.0080           0
     56802 WT5      2287     TIP3     H2       HT       0.417000        1.0080           0
     56803 WT5      2288     TIP3     OH2      OT      -0.834000       15.9994           0
     56804 WT5      2288     TIP3     H1       HT       0.417000        1.0080           0
     56805 WT5      2288     TIP3     H2       HT       0.417000        1.0080           0
     56806 WT5      2289     TIP3     OH2      OT      -0.834000       15.9994           0
     56807 WT5      2289     TIP3     H1       HT       0.417000        1.0080           0
     56808 WT5      2289     TIP3     H2       HT       0.417000        1.0080           0
     56809 WT5      2290     TIP3     OH2      OT      -0.834000       15.9994           0
     56810 WT5      2290     TIP3     H1       HT       0.417000        1.0080           0
     56811 WT5      2290     TIP3     H2       HT       0.417000        1.0080           0
     56812 WT5      2291     TIP3     OH2      OT      -0.834000       15.9994           0
     56813 WT5      2291     TIP3     H1       HT       0.417000        1.0080           0
     56814 WT5      2291     TIP3     H2       HT       0.417000        1.0080           0
     56815 WT5      2292     TIP3     OH2      OT      -0.834000       15.9994           0
     56816 WT5      2292     TIP3     H1       HT       0.417000        1.0080           0
     56817 WT5      2292     TIP3     H2       HT       0.417000        1.0080           0
     56818 WT5      2293     TIP3     OH2      OT      -0.834000       15.9994           0
     56819 WT5      2293     TIP3     H1       HT       0.417000        1.0080           0
     56820 WT5      2293     TIP3     H2       HT       0.417000        1.0080           0
     56821 WT5      2295     TIP3     OH2      OT      -0.834000       15.9994           0
     56822 WT5      2295     TIP3     H1       HT       0.417000        1.0080           0
     56823 WT5      2295     TIP3     H2       HT       0.417000        1.0080           0
     56824 WT5      2297     TIP3     OH2      OT      -0.834000       15.9994           0
     56825 WT5      2297     TIP3     H1       HT       0.417000        1.0080           0
     56826 WT5      2297     TIP3     H2       HT       0.417000        1.0080           0
     56827 WT5      2298     TIP3     OH2      OT      -0.834000       15.9994           0
     56828 WT5      2298     TIP3     H1       HT       0.417000        1.0080           0
     56829 WT5      2298     TIP3     H2       HT       0.417000        1.0080           0
     56830 WT5      2299     TIP3     OH2      OT      -0.834000       15.9994           0
     56831 WT5      2299     TIP3     H1       HT       0.417000        1.0080           0
     56832 WT5      2299     TIP3     H2       HT       0.417000        1.0080           0
     56833 WT5      2300     TIP3     OH2      OT      -0.834000       15.9994           0
     56834 WT5      2300     TIP3     H1       HT       0.417000        1.0080           0
     56835 WT5      2300     TIP3     H2       HT       0.417000        1.0080           0
     56836 WT5      2301     TIP3     OH2      OT      -0.834000       15.9994           0
     56837 WT5      2301     TIP3     H1       HT       0.417000        1.0080           0
     56838 WT5      2301     TIP3     H2       HT       0.417000        1.0080           0
     56839 WT5      2302     TIP3     OH2      OT      -0.834000       15.9994           0
     56840 WT5      2302     TIP3     H1       HT       0.417000        1.0080           0
     56841 WT5      2302     TIP3     H2       HT       0.417000        1.0080           0
     56842 WT5      2303     TIP3     OH2      OT      -0.834000       15.9994           0
     56843 WT5      2303     TIP3     H1       HT       0.417000        1.0080           0
     56844 WT5      2303     TIP3     H2       HT       0.417000        1.0080           0
     56845 WT5      2305     TIP3     OH2      OT      -0.834000       15.9994           0
     56846 WT5      2305     TIP3     H1       HT       0.417000        1.0080           0
     56847 WT5      2305     TIP3     H2       HT       0.417000        1.0080           0
     56848 WT5      2306     TIP3     OH2      OT      -0.834000       15.9994           0
     56849 WT5      2306     TIP3     H1       HT       0.417000        1.0080           0
     56850 WT5      2306     TIP3     H2       HT       0.417000        1.0080           0
     56851 WT5      2309     TIP3     OH2      OT      -0.834000       15.9994           0
     56852 WT5      2309     TIP3     H1       HT       0.417000        1.0080           0
     56853 WT5      2309     TIP3     H2       HT       0.417000        1.0080           0
     56854 WT5      2310     TIP3     OH2      OT      -0.834000       15.9994           0
     56855 WT5      2310     TIP3     H1       HT       0.417000        1.0080           0
     56856 WT5      2310     TIP3     H2       HT       0.417000        1.0080           0
     56857 WT5      2311     TIP3     OH2      OT      -0.834000       15.9994           0
     56858 WT5      2311     TIP3     H1       HT       0.417000        1.0080           0
     56859 WT5      2311     TIP3     H2       HT       0.417000        1.0080           0
     56860 WT5      2315     TIP3     OH2      OT      -0.834000       15.9994           0
     56861 WT5      2315     TIP3     H1       HT       0.417000        1.0080           0
     56862 WT5      2315     TIP3     H2       HT       0.417000        1.0080           0
     56863 WT5      2316     TIP3     OH2      OT      -0.834000       15.9994           0
     56864 WT5      2316     TIP3     H1       HT       0.417000        1.0080           0
     56865 WT5      2316     TIP3     H2       HT       0.417000        1.0080           0
     56866 WT5      2317     TIP3     OH2      OT      -0.834000       15.9994           0
     56867 WT5      2317     TIP3     H1       HT       0.417000        1.0080           0
     56868 WT5      2317     TIP3     H2       HT       0.417000        1.0080           0
     56869 WT5      2318     TIP3     OH2      OT      -0.834000       15.9994           0
     56870 WT5      2318     TIP3     H1       HT       0.417000        1.0080           0
     56871 WT5      2318     TIP3     H2       HT       0.417000        1.0080           0
     56872 WT5      2319     TIP3     OH2      OT      -0.834000       15.9994           0
     56873 WT5      2319     TIP3     H1       HT       0.417000        1.0080           0
     56874 WT5      2319     TIP3     H2       HT       0.417000        1.0080           0
     56875 WT5      2320     TIP3     OH2      OT      -0.834000       15.9994           0
     56876 WT5      2320     TIP3     H1       HT       0.417000        1.0080           0
     56877 WT5      2320     TIP3     H2       HT       0.417000        1.0080           0
     56878 WT5      2321     TIP3     OH2      OT      -0.834000       15.9994           0
     56879 WT5      2321     TIP3     H1       HT       0.417000        1.0080           0
     56880 WT5      2321     TIP3     H2       HT       0.417000        1.0080           0
     56881 WT5      2323     TIP3     OH2      OT      -0.834000       15.9994           0
     56882 WT5      2323     TIP3     H1       HT       0.417000        1.0080           0
     56883 WT5      2323     TIP3     H2       HT       0.417000        1.0080           0
     56884 WT5      2324     TIP3     OH2      OT      -0.834000       15.9994           0
     56885 WT5      2324     TIP3     H1       HT       0.417000        1.0080           0
     56886 WT5      2324     TIP3     H2       HT       0.417000        1.0080           0
     56887 WT5      2325     TIP3     OH2      OT      -0.834000       15.9994           0
     56888 WT5      2325     TIP3     H1       HT       0.417000        1.0080           0
     56889 WT5      2325     TIP3     H2       HT       0.417000        1.0080           0
     56890 WT5      2326     TIP3     OH2      OT      -0.834000       15.9994           0
     56891 WT5      2326     TIP3     H1       HT       0.417000        1.0080           0
     56892 WT5      2326     TIP3     H2       HT       0.417000        1.0080           0
     56893 WT5      2327     TIP3     OH2      OT      -0.834000       15.9994           0
     56894 WT5      2327     TIP3     H1       HT       0.417000        1.0080           0
     56895 WT5      2327     TIP3     H2       HT       0.417000        1.0080           0
     56896 WT5      2328     TIP3     OH2      OT      -0.834000       15.9994           0
     56897 WT5      2328     TIP3     H1       HT       0.417000        1.0080           0
     56898 WT5      2328     TIP3     H2       HT       0.417000        1.0080           0
     56899 WT5      2330     TIP3     OH2      OT      -0.834000       15.9994           0
     56900 WT5      2330     TIP3     H1       HT       0.417000        1.0080           0
     56901 WT5      2330     TIP3     H2       HT       0.417000        1.0080           0
     56902 WT5      2333     TIP3     OH2      OT      -0.834000       15.9994           0
     56903 WT5      2333     TIP3     H1       HT       0.417000        1.0080           0
     56904 WT5      2333     TIP3     H2       HT       0.417000        1.0080           0
     56905 WT5      2334     TIP3     OH2      OT      -0.834000       15.9994           0
     56906 WT5      2334     TIP3     H1       HT       0.417000        1.0080           0
     56907 WT5      2334     TIP3     H2       HT       0.417000        1.0080           0
     56908 WT5      2335     TIP3     OH2      OT      -0.834000       15.9994           0
     56909 WT5      2335     TIP3     H1       HT       0.417000        1.0080           0
     56910 WT5      2335     TIP3     H2       HT       0.417000        1.0080           0
     56911 WT5      2336     TIP3     OH2      OT      -0.834000       15.9994           0
     56912 WT5      2336     TIP3     H1       HT       0.417000        1.0080           0
     56913 WT5      2336     TIP3     H2       HT       0.417000        1.0080           0
     56914 WT5      2337     TIP3     OH2      OT      -0.834000       15.9994           0
     56915 WT5      2337     TIP3     H1       HT       0.417000        1.0080           0
     56916 WT5      2337     TIP3     H2       HT       0.417000        1.0080           0
     56917 WT5      2338     TIP3     OH2      OT      -0.834000       15.9994           0
     56918 WT5      2338     TIP3     H1       HT       0.417000        1.0080           0
     56919 WT5      2338     TIP3     H2       HT       0.417000        1.0080           0
     56920 WT5      2339     TIP3     OH2      OT      -0.834000       15.9994           0
     56921 WT5      2339     TIP3     H1       HT       0.417000        1.0080           0
     56922 WT5      2339     TIP3     H2       HT       0.417000        1.0080           0
     56923 WT5      2340     TIP3     OH2      OT      -0.834000       15.9994           0
     56924 WT5      2340     TIP3     H1       HT       0.417000        1.0080           0
     56925 WT5      2340     TIP3     H2       HT       0.417000        1.0080           0
     56926 WT5      2341     TIP3     OH2      OT      -0.834000       15.9994           0
     56927 WT5      2341     TIP3     H1       HT       0.417000        1.0080           0
     56928 WT5      2341     TIP3     H2       HT       0.417000        1.0080           0
     56929 WT5      2342     TIP3     OH2      OT      -0.834000       15.9994           0
     56930 WT5      2342     TIP3     H1       HT       0.417000        1.0080           0
     56931 WT5      2342     TIP3     H2       HT       0.417000        1.0080           0
     56932 WT5      2344     TIP3     OH2      OT      -0.834000       15.9994           0
     56933 WT5      2344     TIP3     H1       HT       0.417000        1.0080           0
     56934 WT5      2344     TIP3     H2       HT       0.417000        1.0080           0
     56935 WT5      2345     TIP3     OH2      OT      -0.834000       15.9994           0
     56936 WT5      2345     TIP3     H1       HT       0.417000        1.0080           0
     56937 WT5      2345     TIP3     H2       HT       0.417000        1.0080           0
     56938 WT5      2347     TIP3     OH2      OT      -0.834000       15.9994           0
     56939 WT5      2347     TIP3     H1       HT       0.417000        1.0080           0
     56940 WT5      2347     TIP3     H2       HT       0.417000        1.0080           0
     56941 WT5      2348     TIP3     OH2      OT      -0.834000       15.9994           0
     56942 WT5      2348     TIP3     H1       HT       0.417000        1.0080           0
     56943 WT5      2348     TIP3     H2       HT       0.417000        1.0080           0
     56944 WT5      2349     TIP3     OH2      OT      -0.834000       15.9994           0
     56945 WT5      2349     TIP3     H1       HT       0.417000        1.0080           0
     56946 WT5      2349     TIP3     H2       HT       0.417000        1.0080           0
     56947 WT5      2351     TIP3     OH2      OT      -0.834000       15.9994           0
     56948 WT5      2351     TIP3     H1       HT       0.417000        1.0080           0
     56949 WT5      2351     TIP3     H2       HT       0.417000        1.0080           0
     56950 WT5      2352     TIP3     OH2      OT      -0.834000       15.9994           0
     56951 WT5      2352     TIP3     H1       HT       0.417000        1.0080           0
     56952 WT5      2352     TIP3     H2       HT       0.417000        1.0080           0
     56953 WT5      2353     TIP3     OH2      OT      -0.834000       15.9994           0
     56954 WT5      2353     TIP3     H1       HT       0.417000        1.0080           0
     56955 WT5      2353     TIP3     H2       HT       0.417000        1.0080           0
     56956 WT5      2354     TIP3     OH2      OT      -0.834000       15.9994           0
     56957 WT5      2354     TIP3     H1       HT       0.417000        1.0080           0
     56958 WT5      2354     TIP3     H2       HT       0.417000        1.0080           0
     56959 WT5      2355     TIP3     OH2      OT      -0.834000       15.9994           0
     56960 WT5      2355     TIP3     H1       HT       0.417000        1.0080           0
     56961 WT5      2355     TIP3     H2       HT       0.417000        1.0080           0
     56962 WT5      2357     TIP3     OH2      OT      -0.834000       15.9994           0
     56963 WT5      2357     TIP3     H1       HT       0.417000        1.0080           0
     56964 WT5      2357     TIP3     H2       HT       0.417000        1.0080           0
     56965 WT5      2358     TIP3     OH2      OT      -0.834000       15.9994           0
     56966 WT5      2358     TIP3     H1       HT       0.417000        1.0080           0
     56967 WT5      2358     TIP3     H2       HT       0.417000        1.0080           0
     56968 WT5      2359     TIP3     OH2      OT      -0.834000       15.9994           0
     56969 WT5      2359     TIP3     H1       HT       0.417000        1.0080           0
     56970 WT5      2359     TIP3     H2       HT       0.417000        1.0080           0
     56971 WT5      2360     TIP3     OH2      OT      -0.834000       15.9994           0
     56972 WT5      2360     TIP3     H1       HT       0.417000        1.0080           0
     56973 WT5      2360     TIP3     H2       HT       0.417000        1.0080           0
     56974 WT5      2361     TIP3     OH2      OT      -0.834000       15.9994           0
     56975 WT5      2361     TIP3     H1       HT       0.417000        1.0080           0
     56976 WT5      2361     TIP3     H2       HT       0.417000        1.0080           0
     56977 WT5      2362     TIP3     OH2      OT      -0.834000       15.9994           0
     56978 WT5      2362     TIP3     H1       HT       0.417000        1.0080           0
     56979 WT5      2362     TIP3     H2       HT       0.417000        1.0080           0
     56980 WT5      2364     TIP3     OH2      OT      -0.834000       15.9994           0
     56981 WT5      2364     TIP3     H1       HT       0.417000        1.0080           0
     56982 WT5      2364     TIP3     H2       HT       0.417000        1.0080           0
     56983 WT5      2367     TIP3     OH2      OT      -0.834000       15.9994           0
     56984 WT5      2367     TIP3     H1       HT       0.417000        1.0080           0
     56985 WT5      2367     TIP3     H2       HT       0.417000        1.0080           0
     56986 WT5      2370     TIP3     OH2      OT      -0.834000       15.9994           0
     56987 WT5      2370     TIP3     H1       HT       0.417000        1.0080           0
     56988 WT5      2370     TIP3     H2       HT       0.417000        1.0080           0
     56989 WT5      2371     TIP3     OH2      OT      -0.834000       15.9994           0
     56990 WT5      2371     TIP3     H1       HT       0.417000        1.0080           0
     56991 WT5      2371     TIP3     H2       HT       0.417000        1.0080           0
     56992 WT5      2372     TIP3     OH2      OT      -0.834000       15.9994           0
     56993 WT5      2372     TIP3     H1       HT       0.417000        1.0080           0
     56994 WT5      2372     TIP3     H2       HT       0.417000        1.0080           0
     56995 WT5      2373     TIP3     OH2      OT      -0.834000       15.9994           0
     56996 WT5      2373     TIP3     H1       HT       0.417000        1.0080           0
     56997 WT5      2373     TIP3     H2       HT       0.417000        1.0080           0
     56998 WT5      2374     TIP3     OH2      OT      -0.834000       15.9994           0
     56999 WT5      2374     TIP3     H1       HT       0.417000        1.0080           0
     57000 WT5      2374     TIP3     H2       HT       0.417000        1.0080           0
     57001 WT5      2376     TIP3     OH2      OT      -0.834000       15.9994           0
     57002 WT5      2376     TIP3     H1       HT       0.417000        1.0080           0
     57003 WT5      2376     TIP3     H2       HT       0.417000        1.0080           0
     57004 WT5      2377     TIP3     OH2      OT      -0.834000       15.9994           0
     57005 WT5      2377     TIP3     H1       HT       0.417000        1.0080           0
     57006 WT5      2377     TIP3     H2       HT       0.417000        1.0080           0
     57007 WT5      2379     TIP3     OH2      OT      -0.834000       15.9994           0
     57008 WT5      2379     TIP3     H1       HT       0.417000        1.0080           0
     57009 WT5      2379     TIP3     H2       HT       0.417000        1.0080           0
     57010 WT5      2380     TIP3     OH2      OT      -0.834000       15.9994           0
     57011 WT5      2380     TIP3     H1       HT       0.417000        1.0080           0
     57012 WT5      2380     TIP3     H2       HT       0.417000        1.0080           0
     57013 WT5      2381     TIP3     OH2      OT      -0.834000       15.9994           0
     57014 WT5      2381     TIP3     H1       HT       0.417000        1.0080           0
     57015 WT5      2381     TIP3     H2       HT       0.417000        1.0080           0
     57016 WT5      2383     TIP3     OH2      OT      -0.834000       15.9994           0
     57017 WT5      2383     TIP3     H1       HT       0.417000        1.0080           0
     57018 WT5      2383     TIP3     H2       HT       0.417000        1.0080           0
     57019 WT5      2384     TIP3     OH2      OT      -0.834000       15.9994           0
     57020 WT5      2384     TIP3     H1       HT       0.417000        1.0080           0
     57021 WT5      2384     TIP3     H2       HT       0.417000        1.0080           0
     57022 WT5      2385     TIP3     OH2      OT      -0.834000       15.9994           0
     57023 WT5      2385     TIP3     H1       HT       0.417000        1.0080           0
     57024 WT5      2385     TIP3     H2       HT       0.417000        1.0080           0
     57025 WT5      2387     TIP3     OH2      OT      -0.834000       15.9994           0
     57026 WT5      2387     TIP3     H1       HT       0.417000        1.0080           0
     57027 WT5      2387     TIP3     H2       HT       0.417000        1.0080           0
     57028 WT5      2389     TIP3     OH2      OT      -0.834000       15.9994           0
     57029 WT5      2389     TIP3     H1       HT       0.417000        1.0080           0
     57030 WT5      2389     TIP3     H2       HT       0.417000        1.0080           0
     57031 WT5      2390     TIP3     OH2      OT      -0.834000       15.9994           0
     57032 WT5      2390     TIP3     H1       HT       0.417000        1.0080           0
     57033 WT5      2390     TIP3     H2       HT       0.417000        1.0080           0
     57034 WT5      2392     TIP3     OH2      OT      -0.834000       15.9994           0
     57035 WT5      2392     TIP3     H1       HT       0.417000        1.0080           0
     57036 WT5      2392     TIP3     H2       HT       0.417000        1.0080           0
     57037 WT5      2393     TIP3     OH2      OT      -0.834000       15.9994           0
     57038 WT5      2393     TIP3     H1       HT       0.417000        1.0080           0
     57039 WT5      2393     TIP3     H2       HT       0.417000        1.0080           0
     57040 WT5      2395     TIP3     OH2      OT      -0.834000       15.9994           0
     57041 WT5      2395     TIP3     H1       HT       0.417000        1.0080           0
     57042 WT5      2395     TIP3     H2       HT       0.417000        1.0080           0
     57043 WT5      2396     TIP3     OH2      OT      -0.834000       15.9994           0
     57044 WT5      2396     TIP3     H1       HT       0.417000        1.0080           0
     57045 WT5      2396     TIP3     H2       HT       0.417000        1.0080           0
     57046 WT5      2397     TIP3     OH2      OT      -0.834000       15.9994           0
     57047 WT5      2397     TIP3     H1       HT       0.417000        1.0080           0
     57048 WT5      2397     TIP3     H2       HT       0.417000        1.0080           0
     57049 WT5      2398     TIP3     OH2      OT      -0.834000       15.9994           0
     57050 WT5      2398     TIP3     H1       HT       0.417000        1.0080           0
     57051 WT5      2398     TIP3     H2       HT       0.417000        1.0080           0
     57052 WT5      2399     TIP3     OH2      OT      -0.834000       15.9994           0
     57053 WT5      2399     TIP3     H1       HT       0.417000        1.0080           0
     57054 WT5      2399     TIP3     H2       HT       0.417000        1.0080           0
     57055 WT5      2400     TIP3     OH2      OT      -0.834000       15.9994           0
     57056 WT5      2400     TIP3     H1       HT       0.417000        1.0080           0
     57057 WT5      2400     TIP3     H2       HT       0.417000        1.0080           0
     57058 WT5      2401     TIP3     OH2      OT      -0.834000       15.9994           0
     57059 WT5      2401     TIP3     H1       HT       0.417000        1.0080           0
     57060 WT5      2401     TIP3     H2       HT       0.417000        1.0080           0
     57061 WT5      2402     TIP3     OH2      OT      -0.834000       15.9994           0
     57062 WT5      2402     TIP3     H1       HT       0.417000        1.0080           0
     57063 WT5      2402     TIP3     H2       HT       0.417000        1.0080           0
     57064 WT5      2403     TIP3     OH2      OT      -0.834000       15.9994           0
     57065 WT5      2403     TIP3     H1       HT       0.417000        1.0080           0
     57066 WT5      2403     TIP3     H2       HT       0.417000        1.0080           0
     57067 WT5      2404     TIP3     OH2      OT      -0.834000       15.9994           0
     57068 WT5      2404     TIP3     H1       HT       0.417000        1.0080           0
     57069 WT5      2404     TIP3     H2       HT       0.417000        1.0080           0
     57070 WT5      2405     TIP3     OH2      OT      -0.834000       15.9994           0
     57071 WT5      2405     TIP3     H1       HT       0.417000        1.0080           0
     57072 WT5      2405     TIP3     H2       HT       0.417000        1.0080           0
     57073 WT5      2406     TIP3     OH2      OT      -0.834000       15.9994           0
     57074 WT5      2406     TIP3     H1       HT       0.417000        1.0080           0
     57075 WT5      2406     TIP3     H2       HT       0.417000        1.0080           0
     57076 WT5      2408     TIP3     OH2      OT      -0.834000       15.9994           0
     57077 WT5      2408     TIP3     H1       HT       0.417000        1.0080           0
     57078 WT5      2408     TIP3     H2       HT       0.417000        1.0080           0
     57079 WT5      2409     TIP3     OH2      OT      -0.834000       15.9994           0
     57080 WT5      2409     TIP3     H1       HT       0.417000        1.0080           0
     57081 WT5      2409     TIP3     H2       HT       0.417000        1.0080           0
     57082 WT5      2410     TIP3     OH2      OT      -0.834000       15.9994           0
     57083 WT5      2410     TIP3     H1       HT       0.417000        1.0080           0
     57084 WT5      2410     TIP3     H2       HT       0.417000        1.0080           0
     57085 WT5      2411     TIP3     OH2      OT      -0.834000       15.9994           0
     57086 WT5      2411     TIP3     H1       HT       0.417000        1.0080           0
     57087 WT5      2411     TIP3     H2       HT       0.417000        1.0080           0
     57088 WT5      2413     TIP3     OH2      OT      -0.834000       15.9994           0
     57089 WT5      2413     TIP3     H1       HT       0.417000        1.0080           0
     57090 WT5      2413     TIP3     H2       HT       0.417000        1.0080           0
     57091 WT5      2414     TIP3     OH2      OT      -0.834000       15.9994           0
     57092 WT5      2414     TIP3     H1       HT       0.417000        1.0080           0
     57093 WT5      2414     TIP3     H2       HT       0.417000        1.0080           0
     57094 WT5      2415     TIP3     OH2      OT      -0.834000       15.9994           0
     57095 WT5      2415     TIP3     H1       HT       0.417000        1.0080           0
     57096 WT5      2415     TIP3     H2       HT       0.417000        1.0080           0
     57097 WT5      2417     TIP3     OH2      OT      -0.834000       15.9994           0
     57098 WT5      2417     TIP3     H1       HT       0.417000        1.0080           0
     57099 WT5      2417     TIP3     H2       HT       0.417000        1.0080           0
     57100 WT5      2419     TIP3     OH2      OT      -0.834000       15.9994           0
     57101 WT5      2419     TIP3     H1       HT       0.417000        1.0080           0
     57102 WT5      2419     TIP3     H2       HT       0.417000        1.0080           0
     57103 WT5      2421     TIP3     OH2      OT      -0.834000       15.9994           0
     57104 WT5      2421     TIP3     H1       HT       0.417000        1.0080           0
     57105 WT5      2421     TIP3     H2       HT       0.417000        1.0080           0
     57106 WT5      2422     TIP3     OH2      OT      -0.834000       15.9994           0
     57107 WT5      2422     TIP3     H1       HT       0.417000        1.0080           0
     57108 WT5      2422     TIP3     H2       HT       0.417000        1.0080           0
     57109 WT5      2423     TIP3     OH2      OT      -0.834000       15.9994           0
     57110 WT5      2423     TIP3     H1       HT       0.417000        1.0080           0
     57111 WT5      2423     TIP3     H2       HT       0.417000        1.0080           0
     57112 WT5      2425     TIP3     OH2      OT      -0.834000       15.9994           0
     57113 WT5      2425     TIP3     H1       HT       0.417000        1.0080           0
     57114 WT5      2425     TIP3     H2       HT       0.417000        1.0080           0
     57115 WT5      2428     TIP3     OH2      OT      -0.834000       15.9994           0
     57116 WT5      2428     TIP3     H1       HT       0.417000        1.0080           0
     57117 WT5      2428     TIP3     H2       HT       0.417000        1.0080           0
     57118 WT5      2429     TIP3     OH2      OT      -0.834000       15.9994           0
     57119 WT5      2429     TIP3     H1       HT       0.417000        1.0080           0
     57120 WT5      2429     TIP3     H2       HT       0.417000        1.0080           0
     57121 WT5      2430     TIP3     OH2      OT      -0.834000       15.9994           0
     57122 WT5      2430     TIP3     H1       HT       0.417000        1.0080           0
     57123 WT5      2430     TIP3     H2       HT       0.417000        1.0080           0
     57124 WT5      2431     TIP3     OH2      OT      -0.834000       15.9994           0
     57125 WT5      2431     TIP3     H1       HT       0.417000        1.0080           0
     57126 WT5      2431     TIP3     H2       HT       0.417000        1.0080           0
     57127 WT5      2432     TIP3     OH2      OT      -0.834000       15.9994           0
     57128 WT5      2432     TIP3     H1       HT       0.417000        1.0080           0
     57129 WT5      2432     TIP3     H2       HT       0.417000        1.0080           0
     57130 WT5      2433     TIP3     OH2      OT      -0.834000       15.9994           0
     57131 WT5      2433     TIP3     H1       HT       0.417000        1.0080           0
     57132 WT5      2433     TIP3     H2       HT       0.417000        1.0080           0
     57133 WT5      2434     TIP3     OH2      OT      -0.834000       15.9994           0
     57134 WT5      2434     TIP3     H1       HT       0.417000        1.0080           0
     57135 WT5      2434     TIP3     H2       HT       0.417000        1.0080           0
     57136 WT5      2435     TIP3     OH2      OT      -0.834000       15.9994           0
     57137 WT5      2435     TIP3     H1       HT       0.417000        1.0080           0
     57138 WT5      2435     TIP3     H2       HT       0.417000        1.0080           0
     57139 WT5      2436     TIP3     OH2      OT      -0.834000       15.9994           0
     57140 WT5      2436     TIP3     H1       HT       0.417000        1.0080           0
     57141 WT5      2436     TIP3     H2       HT       0.417000        1.0080           0
     57142 WT5      2437     TIP3     OH2      OT      -0.834000       15.9994           0
     57143 WT5      2437     TIP3     H1       HT       0.417000        1.0080           0
     57144 WT5      2437     TIP3     H2       HT       0.417000        1.0080           0
     57145 WT5      2439     TIP3     OH2      OT      -0.834000       15.9994           0
     57146 WT5      2439     TIP3     H1       HT       0.417000        1.0080           0
     57147 WT5      2439     TIP3     H2       HT       0.417000        1.0080           0
     57148 WT5      2440     TIP3     OH2      OT      -0.834000       15.9994           0
     57149 WT5      2440     TIP3     H1       HT       0.417000        1.0080           0
     57150 WT5      2440     TIP3     H2       HT       0.417000        1.0080           0
     57151 WT5      2441     TIP3     OH2      OT      -0.834000       15.9994           0
     57152 WT5      2441     TIP3     H1       HT       0.417000        1.0080           0
     57153 WT5      2441     TIP3     H2       HT       0.417000        1.0080           0
     57154 WT5      2442     TIP3     OH2      OT      -0.834000       15.9994           0
     57155 WT5      2442     TIP3     H1       HT       0.417000        1.0080           0
     57156 WT5      2442     TIP3     H2       HT       0.417000        1.0080           0
     57157 WT5      2443     TIP3     OH2      OT      -0.834000       15.9994           0
     57158 WT5      2443     TIP3     H1       HT       0.417000        1.0080           0
     57159 WT5      2443     TIP3     H2       HT       0.417000        1.0080           0
     57160 WT5      2444     TIP3     OH2      OT      -0.834000       15.9994           0
     57161 WT5      2444     TIP3     H1       HT       0.417000        1.0080           0
     57162 WT5      2444     TIP3     H2       HT       0.417000        1.0080           0
     57163 WT5      2446     TIP3     OH2      OT      -0.834000       15.9994           0
     57164 WT5      2446     TIP3     H1       HT       0.417000        1.0080           0
     57165 WT5      2446     TIP3     H2       HT       0.417000        1.0080           0
     57166 WT5      2447     TIP3     OH2      OT      -0.834000       15.9994           0
     57167 WT5      2447     TIP3     H1       HT       0.417000        1.0080           0
     57168 WT5      2447     TIP3     H2       HT       0.417000        1.0080           0
     57169 WT5      2449     TIP3     OH2      OT      -0.834000       15.9994           0
     57170 WT5      2449     TIP3     H1       HT       0.417000        1.0080           0
     57171 WT5      2449     TIP3     H2       HT       0.417000        1.0080           0
     57172 WT5      2450     TIP3     OH2      OT      -0.834000       15.9994           0
     57173 WT5      2450     TIP3     H1       HT       0.417000        1.0080           0
     57174 WT5      2450     TIP3     H2       HT       0.417000        1.0080           0
     57175 WT5      2451     TIP3     OH2      OT      -0.834000       15.9994           0
     57176 WT5      2451     TIP3     H1       HT       0.417000        1.0080           0
     57177 WT5      2451     TIP3     H2       HT       0.417000        1.0080           0
     57178 WT5      2452     TIP3     OH2      OT      -0.834000       15.9994           0
     57179 WT5      2452     TIP3     H1       HT       0.417000        1.0080           0
     57180 WT5      2452     TIP3     H2       HT       0.417000        1.0080           0
     57181 WT5      2454     TIP3     OH2      OT      -0.834000       15.9994           0
     57182 WT5      2454     TIP3     H1       HT       0.417000        1.0080           0
     57183 WT5      2454     TIP3     H2       HT       0.417000        1.0080           0
     57184 WT5      2457     TIP3     OH2      OT      -0.834000       15.9994           0
     57185 WT5      2457     TIP3     H1       HT       0.417000        1.0080           0
     57186 WT5      2457     TIP3     H2       HT       0.417000        1.0080           0
     57187 WT5      2459     TIP3     OH2      OT      -0.834000       15.9994           0
     57188 WT5      2459     TIP3     H1       HT       0.417000        1.0080           0
     57189 WT5      2459     TIP3     H2       HT       0.417000        1.0080           0
     57190 WT5      2460     TIP3     OH2      OT      -0.834000       15.9994           0
     57191 WT5      2460     TIP3     H1       HT       0.417000        1.0080           0
     57192 WT5      2460     TIP3     H2       HT       0.417000        1.0080           0
     57193 WT5      2461     TIP3     OH2      OT      -0.834000       15.9994           0
     57194 WT5      2461     TIP3     H1       HT       0.417000        1.0080           0
     57195 WT5      2461     TIP3     H2       HT       0.417000        1.0080           0
     57196 WT5      2462     TIP3     OH2      OT      -0.834000       15.9994           0
     57197 WT5      2462     TIP3     H1       HT       0.417000        1.0080           0
     57198 WT5      2462     TIP3     H2       HT       0.417000        1.0080           0
     57199 WT5      2463     TIP3     OH2      OT      -0.834000       15.9994           0
     57200 WT5      2463     TIP3     H1       HT       0.417000        1.0080           0
     57201 WT5      2463     TIP3     H2       HT       0.417000        1.0080           0
     57202 WT5      2464     TIP3     OH2      OT      -0.834000       15.9994           0
     57203 WT5      2464     TIP3     H1       HT       0.417000        1.0080           0
     57204 WT5      2464     TIP3     H2       HT       0.417000        1.0080           0
     57205 WT5      2466     TIP3     OH2      OT      -0.834000       15.9994           0
     57206 WT5      2466     TIP3     H1       HT       0.417000        1.0080           0
     57207 WT5      2466     TIP3     H2       HT       0.417000        1.0080           0
     57208 WT5      2467     TIP3     OH2      OT      -0.834000       15.9994           0
     57209 WT5      2467     TIP3     H1       HT       0.417000        1.0080           0
     57210 WT5      2467     TIP3     H2       HT       0.417000        1.0080           0
     57211 WT5      2468     TIP3     OH2      OT      -0.834000       15.9994           0
     57212 WT5      2468     TIP3     H1       HT       0.417000        1.0080           0
     57213 WT5      2468     TIP3     H2       HT       0.417000        1.0080           0
     57214 WT5      2469     TIP3     OH2      OT      -0.834000       15.9994           0
     57215 WT5      2469     TIP3     H1       HT       0.417000        1.0080           0
     57216 WT5      2469     TIP3     H2       HT       0.417000        1.0080           0
     57217 WT5      2471     TIP3     OH2      OT      -0.834000       15.9994           0
     57218 WT5      2471     TIP3     H1       HT       0.417000        1.0080           0
     57219 WT5      2471     TIP3     H2       HT       0.417000        1.0080           0
     57220 WT5      2472     TIP3     OH2      OT      -0.834000       15.9994           0
     57221 WT5      2472     TIP3     H1       HT       0.417000        1.0080           0
     57222 WT5      2472     TIP3     H2       HT       0.417000        1.0080           0
     57223 WT5      2473     TIP3     OH2      OT      -0.834000       15.9994           0
     57224 WT5      2473     TIP3     H1       HT       0.417000        1.0080           0
     57225 WT5      2473     TIP3     H2       HT       0.417000        1.0080           0
     57226 WT5      2474     TIP3     OH2      OT      -0.834000       15.9994           0
     57227 WT5      2474     TIP3     H1       HT       0.417000        1.0080           0
     57228 WT5      2474     TIP3     H2       HT       0.417000        1.0080           0
     57229 WT5      2475     TIP3     OH2      OT      -0.834000       15.9994           0
     57230 WT5      2475     TIP3     H1       HT       0.417000        1.0080           0
     57231 WT5      2475     TIP3     H2       HT       0.417000        1.0080           0
     57232 WT5      2476     TIP3     OH2      OT      -0.834000       15.9994           0
     57233 WT5      2476     TIP3     H1       HT       0.417000        1.0080           0
     57234 WT5      2476     TIP3     H2       HT       0.417000        1.0080           0
     57235 WT5      2479     TIP3     OH2      OT      -0.834000       15.9994           0
     57236 WT5      2479     TIP3     H1       HT       0.417000        1.0080           0
     57237 WT5      2479     TIP3     H2       HT       0.417000        1.0080           0
     57238 WT5      2480     TIP3     OH2      OT      -0.834000       15.9994           0
     57239 WT5      2480     TIP3     H1       HT       0.417000        1.0080           0
     57240 WT5      2480     TIP3     H2       HT       0.417000        1.0080           0
     57241 WT5      2481     TIP3     OH2      OT      -0.834000       15.9994           0
     57242 WT5      2481     TIP3     H1       HT       0.417000        1.0080           0
     57243 WT5      2481     TIP3     H2       HT       0.417000        1.0080           0
     57244 WT5      2482     TIP3     OH2      OT      -0.834000       15.9994           0
     57245 WT5      2482     TIP3     H1       HT       0.417000        1.0080           0
     57246 WT5      2482     TIP3     H2       HT       0.417000        1.0080           0
     57247 WT5      2483     TIP3     OH2      OT      -0.834000       15.9994           0
     57248 WT5      2483     TIP3     H1       HT       0.417000        1.0080           0
     57249 WT5      2483     TIP3     H2       HT       0.417000        1.0080           0
     57250 WT5      2484     TIP3     OH2      OT      -0.834000       15.9994           0
     57251 WT5      2484     TIP3     H1       HT       0.417000        1.0080           0
     57252 WT5      2484     TIP3     H2       HT       0.417000        1.0080           0
     57253 WT5      2486     TIP3     OH2      OT      -0.834000       15.9994           0
     57254 WT5      2486     TIP3     H1       HT       0.417000        1.0080           0
     57255 WT5      2486     TIP3     H2       HT       0.417000        1.0080           0
     57256 WT5      2487     TIP3     OH2      OT      -0.834000       15.9994           0
     57257 WT5      2487     TIP3     H1       HT       0.417000        1.0080           0
     57258 WT5      2487     TIP3     H2       HT       0.417000        1.0080           0
     57259 WT5      2488     TIP3     OH2      OT      -0.834000       15.9994           0
     57260 WT5      2488     TIP3     H1       HT       0.417000        1.0080           0
     57261 WT5      2488     TIP3     H2       HT       0.417000        1.0080           0
     57262 WT5      2489     TIP3     OH2      OT      -0.834000       15.9994           0
     57263 WT5      2489     TIP3     H1       HT       0.417000        1.0080           0
     57264 WT5      2489     TIP3     H2       HT       0.417000        1.0080           0
     57265 WT5      2490     TIP3     OH2      OT      -0.834000       15.9994           0
     57266 WT5      2490     TIP3     H1       HT       0.417000        1.0080           0
     57267 WT5      2490     TIP3     H2       HT       0.417000        1.0080           0
     57268 WT5      2491     TIP3     OH2      OT      -0.834000       15.9994           0
     57269 WT5      2491     TIP3     H1       HT       0.417000        1.0080           0
     57270 WT5      2491     TIP3     H2       HT       0.417000        1.0080           0
     57271 WT5      2492     TIP3     OH2      OT      -0.834000       15.9994           0
     57272 WT5      2492     TIP3     H1       HT       0.417000        1.0080           0
     57273 WT5      2492     TIP3     H2       HT       0.417000        1.0080           0
     57274 WT5      2493     TIP3     OH2      OT      -0.834000       15.9994           0
     57275 WT5      2493     TIP3     H1       HT       0.417000        1.0080           0
     57276 WT5      2493     TIP3     H2       HT       0.417000        1.0080           0
     57277 WT5      2495     TIP3     OH2      OT      -0.834000       15.9994           0
     57278 WT5      2495     TIP3     H1       HT       0.417000        1.0080           0
     57279 WT5      2495     TIP3     H2       HT       0.417000        1.0080           0
     57280 WT5      2496     TIP3     OH2      OT      -0.834000       15.9994           0
     57281 WT5      2496     TIP3     H1       HT       0.417000        1.0080           0
     57282 WT5      2496     TIP3     H2       HT       0.417000        1.0080           0
     57283 WT5      2497     TIP3     OH2      OT      -0.834000       15.9994           0
     57284 WT5      2497     TIP3     H1       HT       0.417000        1.0080           0
     57285 WT5      2497     TIP3     H2       HT       0.417000        1.0080           0
     57286 WT5      2498     TIP3     OH2      OT      -0.834000       15.9994           0
     57287 WT5      2498     TIP3     H1       HT       0.417000        1.0080           0
     57288 WT5      2498     TIP3     H2       HT       0.417000        1.0080           0
     57289 WT5      2499     TIP3     OH2      OT      -0.834000       15.9994           0
     57290 WT5      2499     TIP3     H1       HT       0.417000        1.0080           0
     57291 WT5      2499     TIP3     H2       HT       0.417000        1.0080           0
     57292 WT5      2500     TIP3     OH2      OT      -0.834000       15.9994           0
     57293 WT5      2500     TIP3     H1       HT       0.417000        1.0080           0
     57294 WT5      2500     TIP3     H2       HT       0.417000        1.0080           0
     57295 WT5      2502     TIP3     OH2      OT      -0.834000       15.9994           0
     57296 WT5      2502     TIP3     H1       HT       0.417000        1.0080           0
     57297 WT5      2502     TIP3     H2       HT       0.417000        1.0080           0
     57298 WT5      2503     TIP3     OH2      OT      -0.834000       15.9994           0
     57299 WT5      2503     TIP3     H1       HT       0.417000        1.0080           0
     57300 WT5      2503     TIP3     H2       HT       0.417000        1.0080           0
     57301 WT5      2505     TIP3     OH2      OT      -0.834000       15.9994           0
     57302 WT5      2505     TIP3     H1       HT       0.417000        1.0080           0
     57303 WT5      2505     TIP3     H2       HT       0.417000        1.0080           0
     57304 WT5      2506     TIP3     OH2      OT      -0.834000       15.9994           0
     57305 WT5      2506     TIP3     H1       HT       0.417000        1.0080           0
     57306 WT5      2506     TIP3     H2       HT       0.417000        1.0080           0
     57307 WT5      2508     TIP3     OH2      OT      -0.834000       15.9994           0
     57308 WT5      2508     TIP3     H1       HT       0.417000        1.0080           0
     57309 WT5      2508     TIP3     H2       HT       0.417000        1.0080           0
     57310 WT5      2510     TIP3     OH2      OT      -0.834000       15.9994           0
     57311 WT5      2510     TIP3     H1       HT       0.417000        1.0080           0
     57312 WT5      2510     TIP3     H2       HT       0.417000        1.0080           0
     57313 WT5      2511     TIP3     OH2      OT      -0.834000       15.9994           0
     57314 WT5      2511     TIP3     H1       HT       0.417000        1.0080           0
     57315 WT5      2511     TIP3     H2       HT       0.417000        1.0080           0
     57316 WT5      2512     TIP3     OH2      OT      -0.834000       15.9994           0
     57317 WT5      2512     TIP3     H1       HT       0.417000        1.0080           0
     57318 WT5      2512     TIP3     H2       HT       0.417000        1.0080           0
     57319 WT5      2513     TIP3     OH2      OT      -0.834000       15.9994           0
     57320 WT5      2513     TIP3     H1       HT       0.417000        1.0080           0
     57321 WT5      2513     TIP3     H2       HT       0.417000        1.0080           0
     57322 WT5      2514     TIP3     OH2      OT      -0.834000       15.9994           0
     57323 WT5      2514     TIP3     H1       HT       0.417000        1.0080           0
     57324 WT5      2514     TIP3     H2       HT       0.417000        1.0080           0
     57325 WT5      2515     TIP3     OH2      OT      -0.834000       15.9994           0
     57326 WT5      2515     TIP3     H1       HT       0.417000        1.0080           0
     57327 WT5      2515     TIP3     H2       HT       0.417000        1.0080           0
     57328 WT5      2517     TIP3     OH2      OT      -0.834000       15.9994           0
     57329 WT5      2517     TIP3     H1       HT       0.417000        1.0080           0
     57330 WT5      2517     TIP3     H2       HT       0.417000        1.0080           0
     57331 WT5      2518     TIP3     OH2      OT      -0.834000       15.9994           0
     57332 WT5      2518     TIP3     H1       HT       0.417000        1.0080           0
     57333 WT5      2518     TIP3     H2       HT       0.417000        1.0080           0
     57334 WT5      2519     TIP3     OH2      OT      -0.834000       15.9994           0
     57335 WT5      2519     TIP3     H1       HT       0.417000        1.0080           0
     57336 WT5      2519     TIP3     H2       HT       0.417000        1.0080           0
     57337 WT5      2521     TIP3     OH2      OT      -0.834000       15.9994           0
     57338 WT5      2521     TIP3     H1       HT       0.417000        1.0080           0
     57339 WT5      2521     TIP3     H2       HT       0.417000        1.0080           0
     57340 WT5      2523     TIP3     OH2      OT      -0.834000       15.9994           0
     57341 WT5      2523     TIP3     H1       HT       0.417000        1.0080           0
     57342 WT5      2523     TIP3     H2       HT       0.417000        1.0080           0
     57343 WT5      2524     TIP3     OH2      OT      -0.834000       15.9994           0
     57344 WT5      2524     TIP3     H1       HT       0.417000        1.0080           0
     57345 WT5      2524     TIP3     H2       HT       0.417000        1.0080           0
     57346 WT5      2525     TIP3     OH2      OT      -0.834000       15.9994           0
     57347 WT5      2525     TIP3     H1       HT       0.417000        1.0080           0
     57348 WT5      2525     TIP3     H2       HT       0.417000        1.0080           0
     57349 WT5      2526     TIP3     OH2      OT      -0.834000       15.9994           0
     57350 WT5      2526     TIP3     H1       HT       0.417000        1.0080           0
     57351 WT5      2526     TIP3     H2       HT       0.417000        1.0080           0
     57352 WT5      2528     TIP3     OH2      OT      -0.834000       15.9994           0
     57353 WT5      2528     TIP3     H1       HT       0.417000        1.0080           0
     57354 WT5      2528     TIP3     H2       HT       0.417000        1.0080           0
     57355 WT5      2529     TIP3     OH2      OT      -0.834000       15.9994           0
     57356 WT5      2529     TIP3     H1       HT       0.417000        1.0080           0
     57357 WT5      2529     TIP3     H2       HT       0.417000        1.0080           0
     57358 WT5      2532     TIP3     OH2      OT      -0.834000       15.9994           0
     57359 WT5      2532     TIP3     H1       HT       0.417000        1.0080           0
     57360 WT5      2532     TIP3     H2       HT       0.417000        1.0080           0
     57361 WT5      2533     TIP3     OH2      OT      -0.834000       15.9994           0
     57362 WT5      2533     TIP3     H1       HT       0.417000        1.0080           0
     57363 WT5      2533     TIP3     H2       HT       0.417000        1.0080           0
     57364 WT5      2534     TIP3     OH2      OT      -0.834000       15.9994           0
     57365 WT5      2534     TIP3     H1       HT       0.417000        1.0080           0
     57366 WT5      2534     TIP3     H2       HT       0.417000        1.0080           0
     57367 WT5      2535     TIP3     OH2      OT      -0.834000       15.9994           0
     57368 WT5      2535     TIP3     H1       HT       0.417000        1.0080           0
     57369 WT5      2535     TIP3     H2       HT       0.417000        1.0080           0
     57370 WT5      2536     TIP3     OH2      OT      -0.834000       15.9994           0
     57371 WT5      2536     TIP3     H1       HT       0.417000        1.0080           0
     57372 WT5      2536     TIP3     H2       HT       0.417000        1.0080           0
     57373 WT5      2537     TIP3     OH2      OT      -0.834000       15.9994           0
     57374 WT5      2537     TIP3     H1       HT       0.417000        1.0080           0
     57375 WT5      2537     TIP3     H2       HT       0.417000        1.0080           0
     57376 WT5      2538     TIP3     OH2      OT      -0.834000       15.9994           0
     57377 WT5      2538     TIP3     H1       HT       0.417000        1.0080           0
     57378 WT5      2538     TIP3     H2       HT       0.417000        1.0080           0
     57379 WT5      2539     TIP3     OH2      OT      -0.834000       15.9994           0
     57380 WT5      2539     TIP3     H1       HT       0.417000        1.0080           0
     57381 WT5      2539     TIP3     H2       HT       0.417000        1.0080           0
     57382 WT5      2540     TIP3     OH2      OT      -0.834000       15.9994           0
     57383 WT5      2540     TIP3     H1       HT       0.417000        1.0080           0
     57384 WT5      2540     TIP3     H2       HT       0.417000        1.0080           0
     57385 WT5      2541     TIP3     OH2      OT      -0.834000       15.9994           0
     57386 WT5      2541     TIP3     H1       HT       0.417000        1.0080           0
     57387 WT5      2541     TIP3     H2       HT       0.417000        1.0080           0
     57388 WT5      2542     TIP3     OH2      OT      -0.834000       15.9994           0
     57389 WT5      2542     TIP3     H1       HT       0.417000        1.0080           0
     57390 WT5      2542     TIP3     H2       HT       0.417000        1.0080           0
     57391 WT5      2543     TIP3     OH2      OT      -0.834000       15.9994           0
     57392 WT5      2543     TIP3     H1       HT       0.417000        1.0080           0
     57393 WT5      2543     TIP3     H2       HT       0.417000        1.0080           0
     57394 WT5      2544     TIP3     OH2      OT      -0.834000       15.9994           0
     57395 WT5      2544     TIP3     H1       HT       0.417000        1.0080           0
     57396 WT5      2544     TIP3     H2       HT       0.417000        1.0080           0
     57397 WT5      2546     TIP3     OH2      OT      -0.834000       15.9994           0
     57398 WT5      2546     TIP3     H1       HT       0.417000        1.0080           0
     57399 WT5      2546     TIP3     H2       HT       0.417000        1.0080           0
     57400 WT5      2548     TIP3     OH2      OT      -0.834000       15.9994           0
     57401 WT5      2548     TIP3     H1       HT       0.417000        1.0080           0
     57402 WT5      2548     TIP3     H2       HT       0.417000        1.0080           0
     57403 WT5      2549     TIP3     OH2      OT      -0.834000       15.9994           0
     57404 WT5      2549     TIP3     H1       HT       0.417000        1.0080           0
     57405 WT5      2549     TIP3     H2       HT       0.417000        1.0080           0
     57406 WT5      2550     TIP3     OH2      OT      -0.834000       15.9994           0
     57407 WT5      2550     TIP3     H1       HT       0.417000        1.0080           0
     57408 WT5      2550     TIP3     H2       HT       0.417000        1.0080           0
     57409 WT5      2551     TIP3     OH2      OT      -0.834000       15.9994           0
     57410 WT5      2551     TIP3     H1       HT       0.417000        1.0080           0
     57411 WT5      2551     TIP3     H2       HT       0.417000        1.0080           0
     57412 WT5      2552     TIP3     OH2      OT      -0.834000       15.9994           0
     57413 WT5      2552     TIP3     H1       HT       0.417000        1.0080           0
     57414 WT5      2552     TIP3     H2       HT       0.417000        1.0080           0
     57415 WT5      2554     TIP3     OH2      OT      -0.834000       15.9994           0
     57416 WT5      2554     TIP3     H1       HT       0.417000        1.0080           0
     57417 WT5      2554     TIP3     H2       HT       0.417000        1.0080           0
     57418 WT5      2555     TIP3     OH2      OT      -0.834000       15.9994           0
     57419 WT5      2555     TIP3     H1       HT       0.417000        1.0080           0
     57420 WT5      2555     TIP3     H2       HT       0.417000        1.0080           0
     57421 WT5      2556     TIP3     OH2      OT      -0.834000       15.9994           0
     57422 WT5      2556     TIP3     H1       HT       0.417000        1.0080           0
     57423 WT5      2556     TIP3     H2       HT       0.417000        1.0080           0
     57424 WT5      2557     TIP3     OH2      OT      -0.834000       15.9994           0
     57425 WT5      2557     TIP3     H1       HT       0.417000        1.0080           0
     57426 WT5      2557     TIP3     H2       HT       0.417000        1.0080           0
     57427 WT5      2559     TIP3     OH2      OT      -0.834000       15.9994           0
     57428 WT5      2559     TIP3     H1       HT       0.417000        1.0080           0
     57429 WT5      2559     TIP3     H2       HT       0.417000        1.0080           0
     57430 WT5      2560     TIP3     OH2      OT      -0.834000       15.9994           0
     57431 WT5      2560     TIP3     H1       HT       0.417000        1.0080           0
     57432 WT5      2560     TIP3     H2       HT       0.417000        1.0080           0
     57433 WT5      2561     TIP3     OH2      OT      -0.834000       15.9994           0
     57434 WT5      2561     TIP3     H1       HT       0.417000        1.0080           0
     57435 WT5      2561     TIP3     H2       HT       0.417000        1.0080           0
     57436 WT5      2562     TIP3     OH2      OT      -0.834000       15.9994           0
     57437 WT5      2562     TIP3     H1       HT       0.417000        1.0080           0
     57438 WT5      2562     TIP3     H2       HT       0.417000        1.0080           0
     57439 WT5      2563     TIP3     OH2      OT      -0.834000       15.9994           0
     57440 WT5      2563     TIP3     H1       HT       0.417000        1.0080           0
     57441 WT5      2563     TIP3     H2       HT       0.417000        1.0080           0
     57442 WT5      2564     TIP3     OH2      OT      -0.834000       15.9994           0
     57443 WT5      2564     TIP3     H1       HT       0.417000        1.0080           0
     57444 WT5      2564     TIP3     H2       HT       0.417000        1.0080           0
     57445 WT5      2565     TIP3     OH2      OT      -0.834000       15.9994           0
     57446 WT5      2565     TIP3     H1       HT       0.417000        1.0080           0
     57447 WT5      2565     TIP3     H2       HT       0.417000        1.0080           0
     57448 WT5      2567     TIP3     OH2      OT      -0.834000       15.9994           0
     57449 WT5      2567     TIP3     H1       HT       0.417000        1.0080           0
     57450 WT5      2567     TIP3     H2       HT       0.417000        1.0080           0
     57451 WT5      2568     TIP3     OH2      OT      -0.834000       15.9994           0
     57452 WT5      2568     TIP3     H1       HT       0.417000        1.0080           0
     57453 WT5      2568     TIP3     H2       HT       0.417000        1.0080           0
     57454 WT5      2569     TIP3     OH2      OT      -0.834000       15.9994           0
     57455 WT5      2569     TIP3     H1       HT       0.417000        1.0080           0
     57456 WT5      2569     TIP3     H2       HT       0.417000        1.0080           0
     57457 WT5      2570     TIP3     OH2      OT      -0.834000       15.9994           0
     57458 WT5      2570     TIP3     H1       HT       0.417000        1.0080           0
     57459 WT5      2570     TIP3     H2       HT       0.417000        1.0080           0
     57460 WT5      2571     TIP3     OH2      OT      -0.834000       15.9994           0
     57461 WT5      2571     TIP3     H1       HT       0.417000        1.0080           0
     57462 WT5      2571     TIP3     H2       HT       0.417000        1.0080           0
     57463 WT5      2572     TIP3     OH2      OT      -0.834000       15.9994           0
     57464 WT5      2572     TIP3     H1       HT       0.417000        1.0080           0
     57465 WT5      2572     TIP3     H2       HT       0.417000        1.0080           0
     57466 WT5      2573     TIP3     OH2      OT      -0.834000       15.9994           0
     57467 WT5      2573     TIP3     H1       HT       0.417000        1.0080           0
     57468 WT5      2573     TIP3     H2       HT       0.417000        1.0080           0
     57469 WT5      2574     TIP3     OH2      OT      -0.834000       15.9994           0
     57470 WT5      2574     TIP3     H1       HT       0.417000        1.0080           0
     57471 WT5      2574     TIP3     H2       HT       0.417000        1.0080           0
     57472 WT5      2575     TIP3     OH2      OT      -0.834000       15.9994           0
     57473 WT5      2575     TIP3     H1       HT       0.417000        1.0080           0
     57474 WT5      2575     TIP3     H2       HT       0.417000        1.0080           0
     57475 WT5      2576     TIP3     OH2      OT      -0.834000       15.9994           0
     57476 WT5      2576     TIP3     H1       HT       0.417000        1.0080           0
     57477 WT5      2576     TIP3     H2       HT       0.417000        1.0080           0
     57478 WT5      2577     TIP3     OH2      OT      -0.834000       15.9994           0
     57479 WT5      2577     TIP3     H1       HT       0.417000        1.0080           0
     57480 WT5      2577     TIP3     H2       HT       0.417000        1.0080           0
     57481 WT5      2578     TIP3     OH2      OT      -0.834000       15.9994           0
     57482 WT5      2578     TIP3     H1       HT       0.417000        1.0080           0
     57483 WT5      2578     TIP3     H2       HT       0.417000        1.0080           0
     57484 WT5      2581     TIP3     OH2      OT      -0.834000       15.9994           0
     57485 WT5      2581     TIP3     H1       HT       0.417000        1.0080           0
     57486 WT5      2581     TIP3     H2       HT       0.417000        1.0080           0
     57487 WT5      2582     TIP3     OH2      OT      -0.834000       15.9994           0
     57488 WT5      2582     TIP3     H1       HT       0.417000        1.0080           0
     57489 WT5      2582     TIP3     H2       HT       0.417000        1.0080           0
     57490 WT5      2583     TIP3     OH2      OT      -0.834000       15.9994           0
     57491 WT5      2583     TIP3     H1       HT       0.417000        1.0080           0
     57492 WT5      2583     TIP3     H2       HT       0.417000        1.0080           0
     57493 WT5      2584     TIP3     OH2      OT      -0.834000       15.9994           0
     57494 WT5      2584     TIP3     H1       HT       0.417000        1.0080           0
     57495 WT5      2584     TIP3     H2       HT       0.417000        1.0080           0
     57496 WT5      2585     TIP3     OH2      OT      -0.834000       15.9994           0
     57497 WT5      2585     TIP3     H1       HT       0.417000        1.0080           0
     57498 WT5      2585     TIP3     H2       HT       0.417000        1.0080           0
     57499 WT5      2586     TIP3     OH2      OT      -0.834000       15.9994           0
     57500 WT5      2586     TIP3     H1       HT       0.417000        1.0080           0
     57501 WT5      2586     TIP3     H2       HT       0.417000        1.0080           0
     57502 WT5      2588     TIP3     OH2      OT      -0.834000       15.9994           0
     57503 WT5      2588     TIP3     H1       HT       0.417000        1.0080           0
     57504 WT5      2588     TIP3     H2       HT       0.417000        1.0080           0
     57505 WT5      2589     TIP3     OH2      OT      -0.834000       15.9994           0
     57506 WT5      2589     TIP3     H1       HT       0.417000        1.0080           0
     57507 WT5      2589     TIP3     H2       HT       0.417000        1.0080           0
     57508 WT5      2590     TIP3     OH2      OT      -0.834000       15.9994           0
     57509 WT5      2590     TIP3     H1       HT       0.417000        1.0080           0
     57510 WT5      2590     TIP3     H2       HT       0.417000        1.0080           0
     57511 WT5      2591     TIP3     OH2      OT      -0.834000       15.9994           0
     57512 WT5      2591     TIP3     H1       HT       0.417000        1.0080           0
     57513 WT5      2591     TIP3     H2       HT       0.417000        1.0080           0
     57514 WT5      2592     TIP3     OH2      OT      -0.834000       15.9994           0
     57515 WT5      2592     TIP3     H1       HT       0.417000        1.0080           0
     57516 WT5      2592     TIP3     H2       HT       0.417000        1.0080           0
     57517 WT5      2593     TIP3     OH2      OT      -0.834000       15.9994           0
     57518 WT5      2593     TIP3     H1       HT       0.417000        1.0080           0
     57519 WT5      2593     TIP3     H2       HT       0.417000        1.0080           0
     57520 WT5      2594     TIP3     OH2      OT      -0.834000       15.9994           0
     57521 WT5      2594     TIP3     H1       HT       0.417000        1.0080           0
     57522 WT5      2594     TIP3     H2       HT       0.417000        1.0080           0
     57523 WT5      2595     TIP3     OH2      OT      -0.834000       15.9994           0
     57524 WT5      2595     TIP3     H1       HT       0.417000        1.0080           0
     57525 WT5      2595     TIP3     H2       HT       0.417000        1.0080           0
     57526 WT5      2598     TIP3     OH2      OT      -0.834000       15.9994           0
     57527 WT5      2598     TIP3     H1       HT       0.417000        1.0080           0
     57528 WT5      2598     TIP3     H2       HT       0.417000        1.0080           0
     57529 WT5      2599     TIP3     OH2      OT      -0.834000       15.9994           0
     57530 WT5      2599     TIP3     H1       HT       0.417000        1.0080           0
     57531 WT5      2599     TIP3     H2       HT       0.417000        1.0080           0
     57532 WT5      2600     TIP3     OH2      OT      -0.834000       15.9994           0
     57533 WT5      2600     TIP3     H1       HT       0.417000        1.0080           0
     57534 WT5      2600     TIP3     H2       HT       0.417000        1.0080           0
     57535 WT5      2602     TIP3     OH2      OT      -0.834000       15.9994           0
     57536 WT5      2602     TIP3     H1       HT       0.417000        1.0080           0
     57537 WT5      2602     TIP3     H2       HT       0.417000        1.0080           0
     57538 WT5      2603     TIP3     OH2      OT      -0.834000       15.9994           0
     57539 WT5      2603     TIP3     H1       HT       0.417000        1.0080           0
     57540 WT5      2603     TIP3     H2       HT       0.417000        1.0080           0
     57541 WT5      2604     TIP3     OH2      OT      -0.834000       15.9994           0
     57542 WT5      2604     TIP3     H1       HT       0.417000        1.0080           0
     57543 WT5      2604     TIP3     H2       HT       0.417000        1.0080           0
     57544 WT5      2605     TIP3     OH2      OT      -0.834000       15.9994           0
     57545 WT5      2605     TIP3     H1       HT       0.417000        1.0080           0
     57546 WT5      2605     TIP3     H2       HT       0.417000        1.0080           0
     57547 WT5      2606     TIP3     OH2      OT      -0.834000       15.9994           0
     57548 WT5      2606     TIP3     H1       HT       0.417000        1.0080           0
     57549 WT5      2606     TIP3     H2       HT       0.417000        1.0080           0
     57550 WT5      2607     TIP3     OH2      OT      -0.834000       15.9994           0
     57551 WT5      2607     TIP3     H1       HT       0.417000        1.0080           0
     57552 WT5      2607     TIP3     H2       HT       0.417000        1.0080           0
     57553 WT5      2608     TIP3     OH2      OT      -0.834000       15.9994           0
     57554 WT5      2608     TIP3     H1       HT       0.417000        1.0080           0
     57555 WT5      2608     TIP3     H2       HT       0.417000        1.0080           0
     57556 WT5      2609     TIP3     OH2      OT      -0.834000       15.9994           0
     57557 WT5      2609     TIP3     H1       HT       0.417000        1.0080           0
     57558 WT5      2609     TIP3     H2       HT       0.417000        1.0080           0
     57559 WT5      2611     TIP3     OH2      OT      -0.834000       15.9994           0
     57560 WT5      2611     TIP3     H1       HT       0.417000        1.0080           0
     57561 WT5      2611     TIP3     H2       HT       0.417000        1.0080           0
     57562 WT5      2612     TIP3     OH2      OT      -0.834000       15.9994           0
     57563 WT5      2612     TIP3     H1       HT       0.417000        1.0080           0
     57564 WT5      2612     TIP3     H2       HT       0.417000        1.0080           0
     57565 WT5      2613     TIP3     OH2      OT      -0.834000       15.9994           0
     57566 WT5      2613     TIP3     H1       HT       0.417000        1.0080           0
     57567 WT5      2613     TIP3     H2       HT       0.417000        1.0080           0
     57568 WT5      2614     TIP3     OH2      OT      -0.834000       15.9994           0
     57569 WT5      2614     TIP3     H1       HT       0.417000        1.0080           0
     57570 WT5      2614     TIP3     H2       HT       0.417000        1.0080           0
     57571 WT5      2615     TIP3     OH2      OT      -0.834000       15.9994           0
     57572 WT5      2615     TIP3     H1       HT       0.417000        1.0080           0
     57573 WT5      2615     TIP3     H2       HT       0.417000        1.0080           0
     57574 WT5      2616     TIP3     OH2      OT      -0.834000       15.9994           0
     57575 WT5      2616     TIP3     H1       HT       0.417000        1.0080           0
     57576 WT5      2616     TIP3     H2       HT       0.417000        1.0080           0
     57577 WT5      2617     TIP3     OH2      OT      -0.834000       15.9994           0
     57578 WT5      2617     TIP3     H1       HT       0.417000        1.0080           0
     57579 WT5      2617     TIP3     H2       HT       0.417000        1.0080           0
     57580 WT5      2618     TIP3     OH2      OT      -0.834000       15.9994           0
     57581 WT5      2618     TIP3     H1       HT       0.417000        1.0080           0
     57582 WT5      2618     TIP3     H2       HT       0.417000        1.0080           0
     57583 WT5      2619     TIP3     OH2      OT      -0.834000       15.9994           0
     57584 WT5      2619     TIP3     H1       HT       0.417000        1.0080           0
     57585 WT5      2619     TIP3     H2       HT       0.417000        1.0080           0
     57586 WT5      2620     TIP3     OH2      OT      -0.834000       15.9994           0
     57587 WT5      2620     TIP3     H1       HT       0.417000        1.0080           0
     57588 WT5      2620     TIP3     H2       HT       0.417000        1.0080           0
     57589 WT5      2621     TIP3     OH2      OT      -0.834000       15.9994           0
     57590 WT5      2621     TIP3     H1       HT       0.417000        1.0080           0
     57591 WT5      2621     TIP3     H2       HT       0.417000        1.0080           0
     57592 WT5      2622     TIP3     OH2      OT      -0.834000       15.9994           0
     57593 WT5      2622     TIP3     H1       HT       0.417000        1.0080           0
     57594 WT5      2622     TIP3     H2       HT       0.417000        1.0080           0
     57595 WT5      2623     TIP3     OH2      OT      -0.834000       15.9994           0
     57596 WT5      2623     TIP3     H1       HT       0.417000        1.0080           0
     57597 WT5      2623     TIP3     H2       HT       0.417000        1.0080           0
     57598 WT5      2625     TIP3     OH2      OT      -0.834000       15.9994           0
     57599 WT5      2625     TIP3     H1       HT       0.417000        1.0080           0
     57600 WT5      2625     TIP3     H2       HT       0.417000        1.0080           0
     57601 WT5      2626     TIP3     OH2      OT      -0.834000       15.9994           0
     57602 WT5      2626     TIP3     H1       HT       0.417000        1.0080           0
     57603 WT5      2626     TIP3     H2       HT       0.417000        1.0080           0
     57604 WT5      2627     TIP3     OH2      OT      -0.834000       15.9994           0
     57605 WT5      2627     TIP3     H1       HT       0.417000        1.0080           0
     57606 WT5      2627     TIP3     H2       HT       0.417000        1.0080           0
     57607 WT5      2629     TIP3     OH2      OT      -0.834000       15.9994           0
     57608 WT5      2629     TIP3     H1       HT       0.417000        1.0080           0
     57609 WT5      2629     TIP3     H2       HT       0.417000        1.0080           0
     57610 WT5      2631     TIP3     OH2      OT      -0.834000       15.9994           0
     57611 WT5      2631     TIP3     H1       HT       0.417000        1.0080           0
     57612 WT5      2631     TIP3     H2       HT       0.417000        1.0080           0
     57613 WT5      2633     TIP3     OH2      OT      -0.834000       15.9994           0
     57614 WT5      2633     TIP3     H1       HT       0.417000        1.0080           0
     57615 WT5      2633     TIP3     H2       HT       0.417000        1.0080           0
     57616 WT5      2634     TIP3     OH2      OT      -0.834000       15.9994           0
     57617 WT5      2634     TIP3     H1       HT       0.417000        1.0080           0
     57618 WT5      2634     TIP3     H2       HT       0.417000        1.0080           0
     57619 WT5      2636     TIP3     OH2      OT      -0.834000       15.9994           0
     57620 WT5      2636     TIP3     H1       HT       0.417000        1.0080           0
     57621 WT5      2636     TIP3     H2       HT       0.417000        1.0080           0
     57622 WT5      2637     TIP3     OH2      OT      -0.834000       15.9994           0
     57623 WT5      2637     TIP3     H1       HT       0.417000        1.0080           0
     57624 WT5      2637     TIP3     H2       HT       0.417000        1.0080           0
     57625 WT5      2638     TIP3     OH2      OT      -0.834000       15.9994           0
     57626 WT5      2638     TIP3     H1       HT       0.417000        1.0080           0
     57627 WT5      2638     TIP3     H2       HT       0.417000        1.0080           0
     57628 WT5      2639     TIP3     OH2      OT      -0.834000       15.9994           0
     57629 WT5      2639     TIP3     H1       HT       0.417000        1.0080           0
     57630 WT5      2639     TIP3     H2       HT       0.417000        1.0080           0
     57631 WT5      2640     TIP3     OH2      OT      -0.834000       15.9994           0
     57632 WT5      2640     TIP3     H1       HT       0.417000        1.0080           0
     57633 WT5      2640     TIP3     H2       HT       0.417000        1.0080           0
     57634 WT5      2642     TIP3     OH2      OT      -0.834000       15.9994           0
     57635 WT5      2642     TIP3     H1       HT       0.417000        1.0080           0
     57636 WT5      2642     TIP3     H2       HT       0.417000        1.0080           0
     57637 WT5      2644     TIP3     OH2      OT      -0.834000       15.9994           0
     57638 WT5      2644     TIP3     H1       HT       0.417000        1.0080           0
     57639 WT5      2644     TIP3     H2       HT       0.417000        1.0080           0
     57640 WT5      2645     TIP3     OH2      OT      -0.834000       15.9994           0
     57641 WT5      2645     TIP3     H1       HT       0.417000        1.0080           0
     57642 WT5      2645     TIP3     H2       HT       0.417000        1.0080           0
     57643 WT5      2646     TIP3     OH2      OT      -0.834000       15.9994           0
     57644 WT5      2646     TIP3     H1       HT       0.417000        1.0080           0
     57645 WT5      2646     TIP3     H2       HT       0.417000        1.0080           0
     57646 WT5      2647     TIP3     OH2      OT      -0.834000       15.9994           0
     57647 WT5      2647     TIP3     H1       HT       0.417000        1.0080           0
     57648 WT5      2647     TIP3     H2       HT       0.417000        1.0080           0
     57649 WT5      2648     TIP3     OH2      OT      -0.834000       15.9994           0
     57650 WT5      2648     TIP3     H1       HT       0.417000        1.0080           0
     57651 WT5      2648     TIP3     H2       HT       0.417000        1.0080           0
     57652 WT5      2651     TIP3     OH2      OT      -0.834000       15.9994           0
     57653 WT5      2651     TIP3     H1       HT       0.417000        1.0080           0
     57654 WT5      2651     TIP3     H2       HT       0.417000        1.0080           0
     57655 WT5      2653     TIP3     OH2      OT      -0.834000       15.9994           0
     57656 WT5      2653     TIP3     H1       HT       0.417000        1.0080           0
     57657 WT5      2653     TIP3     H2       HT       0.417000        1.0080           0
     57658 WT5      2655     TIP3     OH2      OT      -0.834000       15.9994           0
     57659 WT5      2655     TIP3     H1       HT       0.417000        1.0080           0
     57660 WT5      2655     TIP3     H2       HT       0.417000        1.0080           0
     57661 WT5      2656     TIP3     OH2      OT      -0.834000       15.9994           0
     57662 WT5      2656     TIP3     H1       HT       0.417000        1.0080           0
     57663 WT5      2656     TIP3     H2       HT       0.417000        1.0080           0
     57664 WT5      2657     TIP3     OH2      OT      -0.834000       15.9994           0
     57665 WT5      2657     TIP3     H1       HT       0.417000        1.0080           0
     57666 WT5      2657     TIP3     H2       HT       0.417000        1.0080           0
     57667 WT5      2658     TIP3     OH2      OT      -0.834000       15.9994           0
     57668 WT5      2658     TIP3     H1       HT       0.417000        1.0080           0
     57669 WT5      2658     TIP3     H2       HT       0.417000        1.0080           0
     57670 WT5      2659     TIP3     OH2      OT      -0.834000       15.9994           0
     57671 WT5      2659     TIP3     H1       HT       0.417000        1.0080           0
     57672 WT5      2659     TIP3     H2       HT       0.417000        1.0080           0
     57673 WT5      2661     TIP3     OH2      OT      -0.834000       15.9994           0
     57674 WT5      2661     TIP3     H1       HT       0.417000        1.0080           0
     57675 WT5      2661     TIP3     H2       HT       0.417000        1.0080           0
     57676 WT5      2662     TIP3     OH2      OT      -0.834000       15.9994           0
     57677 WT5      2662     TIP3     H1       HT       0.417000        1.0080           0
     57678 WT5      2662     TIP3     H2       HT       0.417000        1.0080           0
     57679 WT5      2663     TIP3     OH2      OT      -0.834000       15.9994           0
     57680 WT5      2663     TIP3     H1       HT       0.417000        1.0080           0
     57681 WT5      2663     TIP3     H2       HT       0.417000        1.0080           0
     57682 WT5      2664     TIP3     OH2      OT      -0.834000       15.9994           0
     57683 WT5      2664     TIP3     H1       HT       0.417000        1.0080           0
     57684 WT5      2664     TIP3     H2       HT       0.417000        1.0080           0
     57685 WT5      2666     TIP3     OH2      OT      -0.834000       15.9994           0
     57686 WT5      2666     TIP3     H1       HT       0.417000        1.0080           0
     57687 WT5      2666     TIP3     H2       HT       0.417000        1.0080           0
     57688 WT5      2668     TIP3     OH2      OT      -0.834000       15.9994           0
     57689 WT5      2668     TIP3     H1       HT       0.417000        1.0080           0
     57690 WT5      2668     TIP3     H2       HT       0.417000        1.0080           0
     57691 WT5      2669     TIP3     OH2      OT      -0.834000       15.9994           0
     57692 WT5      2669     TIP3     H1       HT       0.417000        1.0080           0
     57693 WT5      2669     TIP3     H2       HT       0.417000        1.0080           0
     57694 WT5      2671     TIP3     OH2      OT      -0.834000       15.9994           0
     57695 WT5      2671     TIP3     H1       HT       0.417000        1.0080           0
     57696 WT5      2671     TIP3     H2       HT       0.417000        1.0080           0
     57697 WT5      2673     TIP3     OH2      OT      -0.834000       15.9994           0
     57698 WT5      2673     TIP3     H1       HT       0.417000        1.0080           0
     57699 WT5      2673     TIP3     H2       HT       0.417000        1.0080           0
     57700 WT5      2675     TIP3     OH2      OT      -0.834000       15.9994           0
     57701 WT5      2675     TIP3     H1       HT       0.417000        1.0080           0
     57702 WT5      2675     TIP3     H2       HT       0.417000        1.0080           0
     57703 WT5      2677     TIP3     OH2      OT      -0.834000       15.9994           0
     57704 WT5      2677     TIP3     H1       HT       0.417000        1.0080           0
     57705 WT5      2677     TIP3     H2       HT       0.417000        1.0080           0
     57706 WT5      2679     TIP3     OH2      OT      -0.834000       15.9994           0
     57707 WT5      2679     TIP3     H1       HT       0.417000        1.0080           0
     57708 WT5      2679     TIP3     H2       HT       0.417000        1.0080           0
     57709 WT5      2680     TIP3     OH2      OT      -0.834000       15.9994           0
     57710 WT5      2680     TIP3     H1       HT       0.417000        1.0080           0
     57711 WT5      2680     TIP3     H2       HT       0.417000        1.0080           0
     57712 WT5      2681     TIP3     OH2      OT      -0.834000       15.9994           0
     57713 WT5      2681     TIP3     H1       HT       0.417000        1.0080           0
     57714 WT5      2681     TIP3     H2       HT       0.417000        1.0080           0
     57715 WT5      2682     TIP3     OH2      OT      -0.834000       15.9994           0
     57716 WT5      2682     TIP3     H1       HT       0.417000        1.0080           0
     57717 WT5      2682     TIP3     H2       HT       0.417000        1.0080           0
     57718 WT5      2683     TIP3     OH2      OT      -0.834000       15.9994           0
     57719 WT5      2683     TIP3     H1       HT       0.417000        1.0080           0
     57720 WT5      2683     TIP3     H2       HT       0.417000        1.0080           0
     57721 WT5      2684     TIP3     OH2      OT      -0.834000       15.9994           0
     57722 WT5      2684     TIP3     H1       HT       0.417000        1.0080           0
     57723 WT5      2684     TIP3     H2       HT       0.417000        1.0080           0
     57724 WT5      2685     TIP3     OH2      OT      -0.834000       15.9994           0
     57725 WT5      2685     TIP3     H1       HT       0.417000        1.0080           0
     57726 WT5      2685     TIP3     H2       HT       0.417000        1.0080           0
     57727 WT5      2686     TIP3     OH2      OT      -0.834000       15.9994           0
     57728 WT5      2686     TIP3     H1       HT       0.417000        1.0080           0
     57729 WT5      2686     TIP3     H2       HT       0.417000        1.0080           0
     57730 WT5      2688     TIP3     OH2      OT      -0.834000       15.9994           0
     57731 WT5      2688     TIP3     H1       HT       0.417000        1.0080           0
     57732 WT5      2688     TIP3     H2       HT       0.417000        1.0080           0
     57733 WT5      2689     TIP3     OH2      OT      -0.834000       15.9994           0
     57734 WT5      2689     TIP3     H1       HT       0.417000        1.0080           0
     57735 WT5      2689     TIP3     H2       HT       0.417000        1.0080           0
     57736 WT5      2690     TIP3     OH2      OT      -0.834000       15.9994           0
     57737 WT5      2690     TIP3     H1       HT       0.417000        1.0080           0
     57738 WT5      2690     TIP3     H2       HT       0.417000        1.0080           0
     57739 WT5      2691     TIP3     OH2      OT      -0.834000       15.9994           0
     57740 WT5      2691     TIP3     H1       HT       0.417000        1.0080           0
     57741 WT5      2691     TIP3     H2       HT       0.417000        1.0080           0
     57742 WT5      2693     TIP3     OH2      OT      -0.834000       15.9994           0
     57743 WT5      2693     TIP3     H1       HT       0.417000        1.0080           0
     57744 WT5      2693     TIP3     H2       HT       0.417000        1.0080           0
     57745 WT5      2694     TIP3     OH2      OT      -0.834000       15.9994           0
     57746 WT5      2694     TIP3     H1       HT       0.417000        1.0080           0
     57747 WT5      2694     TIP3     H2       HT       0.417000        1.0080           0
     57748 WT5      2697     TIP3     OH2      OT      -0.834000       15.9994           0
     57749 WT5      2697     TIP3     H1       HT       0.417000        1.0080           0
     57750 WT5      2697     TIP3     H2       HT       0.417000        1.0080           0
     57751 WT5      2701     TIP3     OH2      OT      -0.834000       15.9994           0
     57752 WT5      2701     TIP3     H1       HT       0.417000        1.0080           0
     57753 WT5      2701     TIP3     H2       HT       0.417000        1.0080           0
     57754 WT5      2702     TIP3     OH2      OT      -0.834000       15.9994           0
     57755 WT5      2702     TIP3     H1       HT       0.417000        1.0080           0
     57756 WT5      2702     TIP3     H2       HT       0.417000        1.0080           0
     57757 WT5      2704     TIP3     OH2      OT      -0.834000       15.9994           0
     57758 WT5      2704     TIP3     H1       HT       0.417000        1.0080           0
     57759 WT5      2704     TIP3     H2       HT       0.417000        1.0080           0
     57760 WT5      2705     TIP3     OH2      OT      -0.834000       15.9994           0
     57761 WT5      2705     TIP3     H1       HT       0.417000        1.0080           0
     57762 WT5      2705     TIP3     H2       HT       0.417000        1.0080           0
     57763 WT5      2706     TIP3     OH2      OT      -0.834000       15.9994           0
     57764 WT5      2706     TIP3     H1       HT       0.417000        1.0080           0
     57765 WT5      2706     TIP3     H2       HT       0.417000        1.0080           0
     57766 WT5      2707     TIP3     OH2      OT      -0.834000       15.9994           0
     57767 WT5      2707     TIP3     H1       HT       0.417000        1.0080           0
     57768 WT5      2707     TIP3     H2       HT       0.417000        1.0080           0
     57769 WT5      2709     TIP3     OH2      OT      -0.834000       15.9994           0
     57770 WT5      2709     TIP3     H1       HT       0.417000        1.0080           0
     57771 WT5      2709     TIP3     H2       HT       0.417000        1.0080           0
     57772 WT5      2711     TIP3     OH2      OT      -0.834000       15.9994           0
     57773 WT5      2711     TIP3     H1       HT       0.417000        1.0080           0
     57774 WT5      2711     TIP3     H2       HT       0.417000        1.0080           0
     57775 WT5      2712     TIP3     OH2      OT      -0.834000       15.9994           0
     57776 WT5      2712     TIP3     H1       HT       0.417000        1.0080           0
     57777 WT5      2712     TIP3     H2       HT       0.417000        1.0080           0
     57778 WT5      2713     TIP3     OH2      OT      -0.834000       15.9994           0
     57779 WT5      2713     TIP3     H1       HT       0.417000        1.0080           0
     57780 WT5      2713     TIP3     H2       HT       0.417000        1.0080           0
     57781 WT5      2714     TIP3     OH2      OT      -0.834000       15.9994           0
     57782 WT5      2714     TIP3     H1       HT       0.417000        1.0080           0
     57783 WT5      2714     TIP3     H2       HT       0.417000        1.0080           0
     57784 WT5      2715     TIP3     OH2      OT      -0.834000       15.9994           0
     57785 WT5      2715     TIP3     H1       HT       0.417000        1.0080           0
     57786 WT5      2715     TIP3     H2       HT       0.417000        1.0080           0
     57787 WT5      2720     TIP3     OH2      OT      -0.834000       15.9994           0
     57788 WT5      2720     TIP3     H1       HT       0.417000        1.0080           0
     57789 WT5      2720     TIP3     H2       HT       0.417000        1.0080           0
     57790 WT5      2723     TIP3     OH2      OT      -0.834000       15.9994           0
     57791 WT5      2723     TIP3     H1       HT       0.417000        1.0080           0
     57792 WT5      2723     TIP3     H2       HT       0.417000        1.0080           0
     57793 WT5      2724     TIP3     OH2      OT      -0.834000       15.9994           0
     57794 WT5      2724     TIP3     H1       HT       0.417000        1.0080           0
     57795 WT5      2724     TIP3     H2       HT       0.417000        1.0080           0
     57796 WT5      2725     TIP3     OH2      OT      -0.834000       15.9994           0
     57797 WT5      2725     TIP3     H1       HT       0.417000        1.0080           0
     57798 WT5      2725     TIP3     H2       HT       0.417000        1.0080           0
     57799 WT5      2726     TIP3     OH2      OT      -0.834000       15.9994           0
     57800 WT5      2726     TIP3     H1       HT       0.417000        1.0080           0
     57801 WT5      2726     TIP3     H2       HT       0.417000        1.0080           0
     57802 WT5      2727     TIP3     OH2      OT      -0.834000       15.9994           0
     57803 WT5      2727     TIP3     H1       HT       0.417000        1.0080           0
     57804 WT5      2727     TIP3     H2       HT       0.417000        1.0080           0
     57805 WT5      2728     TIP3     OH2      OT      -0.834000       15.9994           0
     57806 WT5      2728     TIP3     H1       HT       0.417000        1.0080           0
     57807 WT5      2728     TIP3     H2       HT       0.417000        1.0080           0
     57808 WT5      2730     TIP3     OH2      OT      -0.834000       15.9994           0
     57809 WT5      2730     TIP3     H1       HT       0.417000        1.0080           0
     57810 WT5      2730     TIP3     H2       HT       0.417000        1.0080           0
     57811 WT5      2732     TIP3     OH2      OT      -0.834000       15.9994           0
     57812 WT5      2732     TIP3     H1       HT       0.417000        1.0080           0
     57813 WT5      2732     TIP3     H2       HT       0.417000        1.0080           0
     57814 WT5      2734     TIP3     OH2      OT      -0.834000       15.9994           0
     57815 WT5      2734     TIP3     H1       HT       0.417000        1.0080           0
     57816 WT5      2734     TIP3     H2       HT       0.417000        1.0080           0
     57817 WT5      2735     TIP3     OH2      OT      -0.834000       15.9994           0
     57818 WT5      2735     TIP3     H1       HT       0.417000        1.0080           0
     57819 WT5      2735     TIP3     H2       HT       0.417000        1.0080           0
     57820 WT5      2737     TIP3     OH2      OT      -0.834000       15.9994           0
     57821 WT5      2737     TIP3     H1       HT       0.417000        1.0080           0
     57822 WT5      2737     TIP3     H2       HT       0.417000        1.0080           0
     57823 WT5      2738     TIP3     OH2      OT      -0.834000       15.9994           0
     57824 WT5      2738     TIP3     H1       HT       0.417000        1.0080           0
     57825 WT5      2738     TIP3     H2       HT       0.417000        1.0080           0
     57826 WT5      2741     TIP3     OH2      OT      -0.834000       15.9994           0
     57827 WT5      2741     TIP3     H1       HT       0.417000        1.0080           0
     57828 WT5      2741     TIP3     H2       HT       0.417000        1.0080           0
     57829 WT5      2743     TIP3     OH2      OT      -0.834000       15.9994           0
     57830 WT5      2743     TIP3     H1       HT       0.417000        1.0080           0
     57831 WT5      2743     TIP3     H2       HT       0.417000        1.0080           0
     57832 WT5      2744     TIP3     OH2      OT      -0.834000       15.9994           0
     57833 WT5      2744     TIP3     H1       HT       0.417000        1.0080           0
     57834 WT5      2744     TIP3     H2       HT       0.417000        1.0080           0
     57835 WT5      2745     TIP3     OH2      OT      -0.834000       15.9994           0
     57836 WT5      2745     TIP3     H1       HT       0.417000        1.0080           0
     57837 WT5      2745     TIP3     H2       HT       0.417000        1.0080           0
     57838 WT5      2746     TIP3     OH2      OT      -0.834000       15.9994           0
     57839 WT5      2746     TIP3     H1       HT       0.417000        1.0080           0
     57840 WT5      2746     TIP3     H2       HT       0.417000        1.0080           0
     57841 WT5      2747     TIP3     OH2      OT      -0.834000       15.9994           0
     57842 WT5      2747     TIP3     H1       HT       0.417000        1.0080           0
     57843 WT5      2747     TIP3     H2       HT       0.417000        1.0080           0
     57844 WT5      2748     TIP3     OH2      OT      -0.834000       15.9994           0
     57845 WT5      2748     TIP3     H1       HT       0.417000        1.0080           0
     57846 WT5      2748     TIP3     H2       HT       0.417000        1.0080           0
     57847 WT5      2749     TIP3     OH2      OT      -0.834000       15.9994           0
     57848 WT5      2749     TIP3     H1       HT       0.417000        1.0080           0
     57849 WT5      2749     TIP3     H2       HT       0.417000        1.0080           0
     57850 WT5      2750     TIP3     OH2      OT      -0.834000       15.9994           0
     57851 WT5      2750     TIP3     H1       HT       0.417000        1.0080           0
     57852 WT5      2750     TIP3     H2       HT       0.417000        1.0080           0
     57853 WT5      2752     TIP3     OH2      OT      -0.834000       15.9994           0
     57854 WT5      2752     TIP3     H1       HT       0.417000        1.0080           0
     57855 WT5      2752     TIP3     H2       HT       0.417000        1.0080           0
     57856 WT5      2753     TIP3     OH2      OT      -0.834000       15.9994           0
     57857 WT5      2753     TIP3     H1       HT       0.417000        1.0080           0
     57858 WT5      2753     TIP3     H2       HT       0.417000        1.0080           0
     57859 WT5      2755     TIP3     OH2      OT      -0.834000       15.9994           0
     57860 WT5      2755     TIP3     H1       HT       0.417000        1.0080           0
     57861 WT5      2755     TIP3     H2       HT       0.417000        1.0080           0
     57862 WT5      2757     TIP3     OH2      OT      -0.834000       15.9994           0
     57863 WT5      2757     TIP3     H1       HT       0.417000        1.0080           0
     57864 WT5      2757     TIP3     H2       HT       0.417000        1.0080           0
     57865 WT5      2758     TIP3     OH2      OT      -0.834000       15.9994           0
     57866 WT5      2758     TIP3     H1       HT       0.417000        1.0080           0
     57867 WT5      2758     TIP3     H2       HT       0.417000        1.0080           0
     57868 WT5      2759     TIP3     OH2      OT      -0.834000       15.9994           0
     57869 WT5      2759     TIP3     H1       HT       0.417000        1.0080           0
     57870 WT5      2759     TIP3     H2       HT       0.417000        1.0080           0
     57871 WT5      2760     TIP3     OH2      OT      -0.834000       15.9994           0
     57872 WT5      2760     TIP3     H1       HT       0.417000        1.0080           0
     57873 WT5      2760     TIP3     H2       HT       0.417000        1.0080           0
     57874 WT5      2762     TIP3     OH2      OT      -0.834000       15.9994           0
     57875 WT5      2762     TIP3     H1       HT       0.417000        1.0080           0
     57876 WT5      2762     TIP3     H2       HT       0.417000        1.0080           0
     57877 WT5      2764     TIP3     OH2      OT      -0.834000       15.9994           0
     57878 WT5      2764     TIP3     H1       HT       0.417000        1.0080           0
     57879 WT5      2764     TIP3     H2       HT       0.417000        1.0080           0
     57880 WT5      2765     TIP3     OH2      OT      -0.834000       15.9994           0
     57881 WT5      2765     TIP3     H1       HT       0.417000        1.0080           0
     57882 WT5      2765     TIP3     H2       HT       0.417000        1.0080           0
     57883 WT5      2767     TIP3     OH2      OT      -0.834000       15.9994           0
     57884 WT5      2767     TIP3     H1       HT       0.417000        1.0080           0
     57885 WT5      2767     TIP3     H2       HT       0.417000        1.0080           0
     57886 WT5      2769     TIP3     OH2      OT      -0.834000       15.9994           0
     57887 WT5      2769     TIP3     H1       HT       0.417000        1.0080           0
     57888 WT5      2769     TIP3     H2       HT       0.417000        1.0080           0
     57889 WT5      2770     TIP3     OH2      OT      -0.834000       15.9994           0
     57890 WT5      2770     TIP3     H1       HT       0.417000        1.0080           0
     57891 WT5      2770     TIP3     H2       HT       0.417000        1.0080           0
     57892 WT5      2771     TIP3     OH2      OT      -0.834000       15.9994           0
     57893 WT5      2771     TIP3     H1       HT       0.417000        1.0080           0
     57894 WT5      2771     TIP3     H2       HT       0.417000        1.0080           0
     57895 WT5      2772     TIP3     OH2      OT      -0.834000       15.9994           0
     57896 WT5      2772     TIP3     H1       HT       0.417000        1.0080           0
     57897 WT5      2772     TIP3     H2       HT       0.417000        1.0080           0
     57898 WT5      2776     TIP3     OH2      OT      -0.834000       15.9994           0
     57899 WT5      2776     TIP3     H1       HT       0.417000        1.0080           0
     57900 WT5      2776     TIP3     H2       HT       0.417000        1.0080           0
     57901 WT5      2778     TIP3     OH2      OT      -0.834000       15.9994           0
     57902 WT5      2778     TIP3     H1       HT       0.417000        1.0080           0
     57903 WT5      2778     TIP3     H2       HT       0.417000        1.0080           0
     57904 WT5      2779     TIP3     OH2      OT      -0.834000       15.9994           0
     57905 WT5      2779     TIP3     H1       HT       0.417000        1.0080           0
     57906 WT5      2779     TIP3     H2       HT       0.417000        1.0080           0
     57907 WT5      2780     TIP3     OH2      OT      -0.834000       15.9994           0
     57908 WT5      2780     TIP3     H1       HT       0.417000        1.0080           0
     57909 WT5      2780     TIP3     H2       HT       0.417000        1.0080           0
     57910 WT5      2781     TIP3     OH2      OT      -0.834000       15.9994           0
     57911 WT5      2781     TIP3     H1       HT       0.417000        1.0080           0
     57912 WT5      2781     TIP3     H2       HT       0.417000        1.0080           0
     57913 WT5      2784     TIP3     OH2      OT      -0.834000       15.9994           0
     57914 WT5      2784     TIP3     H1       HT       0.417000        1.0080           0
     57915 WT5      2784     TIP3     H2       HT       0.417000        1.0080           0
     57916 WT5      2785     TIP3     OH2      OT      -0.834000       15.9994           0
     57917 WT5      2785     TIP3     H1       HT       0.417000        1.0080           0
     57918 WT5      2785     TIP3     H2       HT       0.417000        1.0080           0
     57919 WT5      2786     TIP3     OH2      OT      -0.834000       15.9994           0
     57920 WT5      2786     TIP3     H1       HT       0.417000        1.0080           0
     57921 WT5      2786     TIP3     H2       HT       0.417000        1.0080           0
     57922 WT5      2787     TIP3     OH2      OT      -0.834000       15.9994           0
     57923 WT5      2787     TIP3     H1       HT       0.417000        1.0080           0
     57924 WT5      2787     TIP3     H2       HT       0.417000        1.0080           0
     57925 WT5      2788     TIP3     OH2      OT      -0.834000       15.9994           0
     57926 WT5      2788     TIP3     H1       HT       0.417000        1.0080           0
     57927 WT5      2788     TIP3     H2       HT       0.417000        1.0080           0
     57928 WT5      2790     TIP3     OH2      OT      -0.834000       15.9994           0
     57929 WT5      2790     TIP3     H1       HT       0.417000        1.0080           0
     57930 WT5      2790     TIP3     H2       HT       0.417000        1.0080           0
     57931 WT5      2791     TIP3     OH2      OT      -0.834000       15.9994           0
     57932 WT5      2791     TIP3     H1       HT       0.417000        1.0080           0
     57933 WT5      2791     TIP3     H2       HT       0.417000        1.0080           0
     57934 WT5      2794     TIP3     OH2      OT      -0.834000       15.9994           0
     57935 WT5      2794     TIP3     H1       HT       0.417000        1.0080           0
     57936 WT5      2794     TIP3     H2       HT       0.417000        1.0080           0
     57937 WT5      2795     TIP3     OH2      OT      -0.834000       15.9994           0
     57938 WT5      2795     TIP3     H1       HT       0.417000        1.0080           0
     57939 WT5      2795     TIP3     H2       HT       0.417000        1.0080           0
     57940 WT5      2796     TIP3     OH2      OT      -0.834000       15.9994           0
     57941 WT5      2796     TIP3     H1       HT       0.417000        1.0080           0
     57942 WT5      2796     TIP3     H2       HT       0.417000        1.0080           0
     57943 WT5      2797     TIP3     OH2      OT      -0.834000       15.9994           0
     57944 WT5      2797     TIP3     H1       HT       0.417000        1.0080           0
     57945 WT5      2797     TIP3     H2       HT       0.417000        1.0080           0
     57946 WT5      2798     TIP3     OH2      OT      -0.834000       15.9994           0
     57947 WT5      2798     TIP3     H1       HT       0.417000        1.0080           0
     57948 WT5      2798     TIP3     H2       HT       0.417000        1.0080           0
     57949 WT5      2799     TIP3     OH2      OT      -0.834000       15.9994           0
     57950 WT5      2799     TIP3     H1       HT       0.417000        1.0080           0
     57951 WT5      2799     TIP3     H2       HT       0.417000        1.0080           0
     57952 WT5      2800     TIP3     OH2      OT      -0.834000       15.9994           0
     57953 WT5      2800     TIP3     H1       HT       0.417000        1.0080           0
     57954 WT5      2800     TIP3     H2       HT       0.417000        1.0080           0
     57955 WT5      2801     TIP3     OH2      OT      -0.834000       15.9994           0
     57956 WT5      2801     TIP3     H1       HT       0.417000        1.0080           0
     57957 WT5      2801     TIP3     H2       HT       0.417000        1.0080           0
     57958 WT5      2802     TIP3     OH2      OT      -0.834000       15.9994           0
     57959 WT5      2802     TIP3     H1       HT       0.417000        1.0080           0
     57960 WT5      2802     TIP3     H2       HT       0.417000        1.0080           0
     57961 WT5      2806     TIP3     OH2      OT      -0.834000       15.9994           0
     57962 WT5      2806     TIP3     H1       HT       0.417000        1.0080           0
     57963 WT5      2806     TIP3     H2       HT       0.417000        1.0080           0
     57964 WT5      2808     TIP3     OH2      OT      -0.834000       15.9994           0
     57965 WT5      2808     TIP3     H1       HT       0.417000        1.0080           0
     57966 WT5      2808     TIP3     H2       HT       0.417000        1.0080           0
     57967 WT5      2809     TIP3     OH2      OT      -0.834000       15.9994           0
     57968 WT5      2809     TIP3     H1       HT       0.417000        1.0080           0
     57969 WT5      2809     TIP3     H2       HT       0.417000        1.0080           0
     57970 WT5      2812     TIP3     OH2      OT      -0.834000       15.9994           0
     57971 WT5      2812     TIP3     H1       HT       0.417000        1.0080           0
     57972 WT5      2812     TIP3     H2       HT       0.417000        1.0080           0
     57973 WT5      2813     TIP3     OH2      OT      -0.834000       15.9994           0
     57974 WT5      2813     TIP3     H1       HT       0.417000        1.0080           0
     57975 WT5      2813     TIP3     H2       HT       0.417000        1.0080           0
     57976 WT5      2815     TIP3     OH2      OT      -0.834000       15.9994           0
     57977 WT5      2815     TIP3     H1       HT       0.417000        1.0080           0
     57978 WT5      2815     TIP3     H2       HT       0.417000        1.0080           0
     57979 WT5      2816     TIP3     OH2      OT      -0.834000       15.9994           0
     57980 WT5      2816     TIP3     H1       HT       0.417000        1.0080           0
     57981 WT5      2816     TIP3     H2       HT       0.417000        1.0080           0
     57982 WT5      2817     TIP3     OH2      OT      -0.834000       15.9994           0
     57983 WT5      2817     TIP3     H1       HT       0.417000        1.0080           0
     57984 WT5      2817     TIP3     H2       HT       0.417000        1.0080           0
     57985 WT5      2824     TIP3     OH2      OT      -0.834000       15.9994           0
     57986 WT5      2824     TIP3     H1       HT       0.417000        1.0080           0
     57987 WT5      2824     TIP3     H2       HT       0.417000        1.0080           0
     57988 WT5      2826     TIP3     OH2      OT      -0.834000       15.9994           0
     57989 WT5      2826     TIP3     H1       HT       0.417000        1.0080           0
     57990 WT5      2826     TIP3     H2       HT       0.417000        1.0080           0
     57991 WT5      2827     TIP3     OH2      OT      -0.834000       15.9994           0
     57992 WT5      2827     TIP3     H1       HT       0.417000        1.0080           0
     57993 WT5      2827     TIP3     H2       HT       0.417000        1.0080           0
     57994 WT5      2831     TIP3     OH2      OT      -0.834000       15.9994           0
     57995 WT5      2831     TIP3     H1       HT       0.417000        1.0080           0
     57996 WT5      2831     TIP3     H2       HT       0.417000        1.0080           0
     57997 WT5      2832     TIP3     OH2      OT      -0.834000       15.9994           0
     57998 WT5      2832     TIP3     H1       HT       0.417000        1.0080           0
     57999 WT5      2832     TIP3     H2       HT       0.417000        1.0080           0
     58000 WT5      2833     TIP3     OH2      OT      -0.834000       15.9994           0
     58001 WT5      2833     TIP3     H1       HT       0.417000        1.0080           0
     58002 WT5      2833     TIP3     H2       HT       0.417000        1.0080           0
     58003 WT5      2834     TIP3     OH2      OT      -0.834000       15.9994           0
     58004 WT5      2834     TIP3     H1       HT       0.417000        1.0080           0
     58005 WT5      2834     TIP3     H2       HT       0.417000        1.0080           0
     58006 WT5      2838     TIP3     OH2      OT      -0.834000       15.9994           0
     58007 WT5      2838     TIP3     H1       HT       0.417000        1.0080           0
     58008 WT5      2838     TIP3     H2       HT       0.417000        1.0080           0
     58009 WT5      2840     TIP3     OH2      OT      -0.834000       15.9994           0
     58010 WT5      2840     TIP3     H1       HT       0.417000        1.0080           0
     58011 WT5      2840     TIP3     H2       HT       0.417000        1.0080           0
     58012 WT5      2841     TIP3     OH2      OT      -0.834000       15.9994           0
     58013 WT5      2841     TIP3     H1       HT       0.417000        1.0080           0
     58014 WT5      2841     TIP3     H2       HT       0.417000        1.0080           0
     58015 WT5      2842     TIP3     OH2      OT      -0.834000       15.9994           0
     58016 WT5      2842     TIP3     H1       HT       0.417000        1.0080           0
     58017 WT5      2842     TIP3     H2       HT       0.417000        1.0080           0
     58018 WT5      2844     TIP3     OH2      OT      -0.834000       15.9994           0
     58019 WT5      2844     TIP3     H1       HT       0.417000        1.0080           0
     58020 WT5      2844     TIP3     H2       HT       0.417000        1.0080           0
     58021 WT5      2845     TIP3     OH2      OT      -0.834000       15.9994           0
     58022 WT5      2845     TIP3     H1       HT       0.417000        1.0080           0
     58023 WT5      2845     TIP3     H2       HT       0.417000        1.0080           0
     58024 WT5      2846     TIP3     OH2      OT      -0.834000       15.9994           0
     58025 WT5      2846     TIP3     H1       HT       0.417000        1.0080           0
     58026 WT5      2846     TIP3     H2       HT       0.417000        1.0080           0
     58027 WT5      2848     TIP3     OH2      OT      -0.834000       15.9994           0
     58028 WT5      2848     TIP3     H1       HT       0.417000        1.0080           0
     58029 WT5      2848     TIP3     H2       HT       0.417000        1.0080           0
     58030 WT5      2849     TIP3     OH2      OT      -0.834000       15.9994           0
     58031 WT5      2849     TIP3     H1       HT       0.417000        1.0080           0
     58032 WT5      2849     TIP3     H2       HT       0.417000        1.0080           0
     58033 WT5      2851     TIP3     OH2      OT      -0.834000       15.9994           0
     58034 WT5      2851     TIP3     H1       HT       0.417000        1.0080           0
     58035 WT5      2851     TIP3     H2       HT       0.417000        1.0080           0
     58036 WT5      2852     TIP3     OH2      OT      -0.834000       15.9994           0
     58037 WT5      2852     TIP3     H1       HT       0.417000        1.0080           0
     58038 WT5      2852     TIP3     H2       HT       0.417000        1.0080           0
     58039 WT5      2853     TIP3     OH2      OT      -0.834000       15.9994           0
     58040 WT5      2853     TIP3     H1       HT       0.417000        1.0080           0
     58041 WT5      2853     TIP3     H2       HT       0.417000        1.0080           0
     58042 WT5      2854     TIP3     OH2      OT      -0.834000       15.9994           0
     58043 WT5      2854     TIP3     H1       HT       0.417000        1.0080           0
     58044 WT5      2854     TIP3     H2       HT       0.417000        1.0080           0
     58045 WT5      2855     TIP3     OH2      OT      -0.834000       15.9994           0
     58046 WT5      2855     TIP3     H1       HT       0.417000        1.0080           0
     58047 WT5      2855     TIP3     H2       HT       0.417000        1.0080           0
     58048 WT5      2856     TIP3     OH2      OT      -0.834000       15.9994           0
     58049 WT5      2856     TIP3     H1       HT       0.417000        1.0080           0
     58050 WT5      2856     TIP3     H2       HT       0.417000        1.0080           0
     58051 WT5      2857     TIP3     OH2      OT      -0.834000       15.9994           0
     58052 WT5      2857     TIP3     H1       HT       0.417000        1.0080           0
     58053 WT5      2857     TIP3     H2       HT       0.417000        1.0080           0
     58054 WT5      2858     TIP3     OH2      OT      -0.834000       15.9994           0
     58055 WT5      2858     TIP3     H1       HT       0.417000        1.0080           0
     58056 WT5      2858     TIP3     H2       HT       0.417000        1.0080           0
     58057 WT5      2859     TIP3     OH2      OT      -0.834000       15.9994           0
     58058 WT5      2859     TIP3     H1       HT       0.417000        1.0080           0
     58059 WT5      2859     TIP3     H2       HT       0.417000        1.0080           0
     58060 WT5      2860     TIP3     OH2      OT      -0.834000       15.9994           0
     58061 WT5      2860     TIP3     H1       HT       0.417000        1.0080           0
     58062 WT5      2860     TIP3     H2       HT       0.417000        1.0080           0
     58063 WT5      2861     TIP3     OH2      OT      -0.834000       15.9994           0
     58064 WT5      2861     TIP3     H1       HT       0.417000        1.0080           0
     58065 WT5      2861     TIP3     H2       HT       0.417000        1.0080           0
     58066 WT5      2862     TIP3     OH2      OT      -0.834000       15.9994           0
     58067 WT5      2862     TIP3     H1       HT       0.417000        1.0080           0
     58068 WT5      2862     TIP3     H2       HT       0.417000        1.0080           0
     58069 WT5      2863     TIP3     OH2      OT      -0.834000       15.9994           0
     58070 WT5      2863     TIP3     H1       HT       0.417000        1.0080           0
     58071 WT5      2863     TIP3     H2       HT       0.417000        1.0080           0
     58072 WT5      2864     TIP3     OH2      OT      -0.834000       15.9994           0
     58073 WT5      2864     TIP3     H1       HT       0.417000        1.0080           0
     58074 WT5      2864     TIP3     H2       HT       0.417000        1.0080           0
     58075 WT5      2865     TIP3     OH2      OT      -0.834000       15.9994           0
     58076 WT5      2865     TIP3     H1       HT       0.417000        1.0080           0
     58077 WT5      2865     TIP3     H2       HT       0.417000        1.0080           0
     58078 WT5      2866     TIP3     OH2      OT      -0.834000       15.9994           0
     58079 WT5      2866     TIP3     H1       HT       0.417000        1.0080           0
     58080 WT5      2866     TIP3     H2       HT       0.417000        1.0080           0
     58081 WT5      2867     TIP3     OH2      OT      -0.834000       15.9994           0
     58082 WT5      2867     TIP3     H1       HT       0.417000        1.0080           0
     58083 WT5      2867     TIP3     H2       HT       0.417000        1.0080           0
     58084 WT5      2868     TIP3     OH2      OT      -0.834000       15.9994           0
     58085 WT5      2868     TIP3     H1       HT       0.417000        1.0080           0
     58086 WT5      2868     TIP3     H2       HT       0.417000        1.0080           0
     58087 WT5      2869     TIP3     OH2      OT      -0.834000       15.9994           0
     58088 WT5      2869     TIP3     H1       HT       0.417000        1.0080           0
     58089 WT5      2869     TIP3     H2       HT       0.417000        1.0080           0
     58090 WT5      2871     TIP3     OH2      OT      -0.834000       15.9994           0
     58091 WT5      2871     TIP3     H1       HT       0.417000        1.0080           0
     58092 WT5      2871     TIP3     H2       HT       0.417000        1.0080           0
     58093 WT5      2872     TIP3     OH2      OT      -0.834000       15.9994           0
     58094 WT5      2872     TIP3     H1       HT       0.417000        1.0080           0
     58095 WT5      2872     TIP3     H2       HT       0.417000        1.0080           0
     58096 WT5      2873     TIP3     OH2      OT      -0.834000       15.9994           0
     58097 WT5      2873     TIP3     H1       HT       0.417000        1.0080           0
     58098 WT5      2873     TIP3     H2       HT       0.417000        1.0080           0
     58099 WT5      2874     TIP3     OH2      OT      -0.834000       15.9994           0
     58100 WT5      2874     TIP3     H1       HT       0.417000        1.0080           0
     58101 WT5      2874     TIP3     H2       HT       0.417000        1.0080           0
     58102 WT5      2875     TIP3     OH2      OT      -0.834000       15.9994           0
     58103 WT5      2875     TIP3     H1       HT       0.417000        1.0080           0
     58104 WT5      2875     TIP3     H2       HT       0.417000        1.0080           0
     58105 WT5      2876     TIP3     OH2      OT      -0.834000       15.9994           0
     58106 WT5      2876     TIP3     H1       HT       0.417000        1.0080           0
     58107 WT5      2876     TIP3     H2       HT       0.417000        1.0080           0
     58108 WT5      2878     TIP3     OH2      OT      -0.834000       15.9994           0
     58109 WT5      2878     TIP3     H1       HT       0.417000        1.0080           0
     58110 WT5      2878     TIP3     H2       HT       0.417000        1.0080           0
     58111 WT5      2879     TIP3     OH2      OT      -0.834000       15.9994           0
     58112 WT5      2879     TIP3     H1       HT       0.417000        1.0080           0
     58113 WT5      2879     TIP3     H2       HT       0.417000        1.0080           0
     58114 WT5      2880     TIP3     OH2      OT      -0.834000       15.9994           0
     58115 WT5      2880     TIP3     H1       HT       0.417000        1.0080           0
     58116 WT5      2880     TIP3     H2       HT       0.417000        1.0080           0
     58117 WT5      2881     TIP3     OH2      OT      -0.834000       15.9994           0
     58118 WT5      2881     TIP3     H1       HT       0.417000        1.0080           0
     58119 WT5      2881     TIP3     H2       HT       0.417000        1.0080           0
     58120 WT5      2883     TIP3     OH2      OT      -0.834000       15.9994           0
     58121 WT5      2883     TIP3     H1       HT       0.417000        1.0080           0
     58122 WT5      2883     TIP3     H2       HT       0.417000        1.0080           0
     58123 WT5      2884     TIP3     OH2      OT      -0.834000       15.9994           0
     58124 WT5      2884     TIP3     H1       HT       0.417000        1.0080           0
     58125 WT5      2884     TIP3     H2       HT       0.417000        1.0080           0
     58126 WT5      2885     TIP3     OH2      OT      -0.834000       15.9994           0
     58127 WT5      2885     TIP3     H1       HT       0.417000        1.0080           0
     58128 WT5      2885     TIP3     H2       HT       0.417000        1.0080           0
     58129 WT5      2886     TIP3     OH2      OT      -0.834000       15.9994           0
     58130 WT5      2886     TIP3     H1       HT       0.417000        1.0080           0
     58131 WT5      2886     TIP3     H2       HT       0.417000        1.0080           0
     58132 WT5      2887     TIP3     OH2      OT      -0.834000       15.9994           0
     58133 WT5      2887     TIP3     H1       HT       0.417000        1.0080           0
     58134 WT5      2887     TIP3     H2       HT       0.417000        1.0080           0
     58135 WT5      2889     TIP3     OH2      OT      -0.834000       15.9994           0
     58136 WT5      2889     TIP3     H1       HT       0.417000        1.0080           0
     58137 WT5      2889     TIP3     H2       HT       0.417000        1.0080           0
     58138 WT5      2890     TIP3     OH2      OT      -0.834000       15.9994           0
     58139 WT5      2890     TIP3     H1       HT       0.417000        1.0080           0
     58140 WT5      2890     TIP3     H2       HT       0.417000        1.0080           0
     58141 WT5      2891     TIP3     OH2      OT      -0.834000       15.9994           0
     58142 WT5      2891     TIP3     H1       HT       0.417000        1.0080           0
     58143 WT5      2891     TIP3     H2       HT       0.417000        1.0080           0
     58144 WT5      2894     TIP3     OH2      OT      -0.834000       15.9994           0
     58145 WT5      2894     TIP3     H1       HT       0.417000        1.0080           0
     58146 WT5      2894     TIP3     H2       HT       0.417000        1.0080           0
     58147 WT5      2895     TIP3     OH2      OT      -0.834000       15.9994           0
     58148 WT5      2895     TIP3     H1       HT       0.417000        1.0080           0
     58149 WT5      2895     TIP3     H2       HT       0.417000        1.0080           0
     58150 WT5      2896     TIP3     OH2      OT      -0.834000       15.9994           0
     58151 WT5      2896     TIP3     H1       HT       0.417000        1.0080           0
     58152 WT5      2896     TIP3     H2       HT       0.417000        1.0080           0
     58153 WT5      2898     TIP3     OH2      OT      -0.834000       15.9994           0
     58154 WT5      2898     TIP3     H1       HT       0.417000        1.0080           0
     58155 WT5      2898     TIP3     H2       HT       0.417000        1.0080           0
     58156 WT5      2899     TIP3     OH2      OT      -0.834000       15.9994           0
     58157 WT5      2899     TIP3     H1       HT       0.417000        1.0080           0
     58158 WT5      2899     TIP3     H2       HT       0.417000        1.0080           0
     58159 WT5      2901     TIP3     OH2      OT      -0.834000       15.9994           0
     58160 WT5      2901     TIP3     H1       HT       0.417000        1.0080           0
     58161 WT5      2901     TIP3     H2       HT       0.417000        1.0080           0
     58162 WT5      2903     TIP3     OH2      OT      -0.834000       15.9994           0
     58163 WT5      2903     TIP3     H1       HT       0.417000        1.0080           0
     58164 WT5      2903     TIP3     H2       HT       0.417000        1.0080           0
     58165 WT5      2904     TIP3     OH2      OT      -0.834000       15.9994           0
     58166 WT5      2904     TIP3     H1       HT       0.417000        1.0080           0
     58167 WT5      2904     TIP3     H2       HT       0.417000        1.0080           0
     58168 WT5      2905     TIP3     OH2      OT      -0.834000       15.9994           0
     58169 WT5      2905     TIP3     H1       HT       0.417000        1.0080           0
     58170 WT5      2905     TIP3     H2       HT       0.417000        1.0080           0
     58171 WT5      2906     TIP3     OH2      OT      -0.834000       15.9994           0
     58172 WT5      2906     TIP3     H1       HT       0.417000        1.0080           0
     58173 WT5      2906     TIP3     H2       HT       0.417000        1.0080           0
     58174 WT5      2908     TIP3     OH2      OT      -0.834000       15.9994           0
     58175 WT5      2908     TIP3     H1       HT       0.417000        1.0080           0
     58176 WT5      2908     TIP3     H2       HT       0.417000        1.0080           0
     58177 WT5      2909     TIP3     OH2      OT      -0.834000       15.9994           0
     58178 WT5      2909     TIP3     H1       HT       0.417000        1.0080           0
     58179 WT5      2909     TIP3     H2       HT       0.417000        1.0080           0
     58180 WT5      2910     TIP3     OH2      OT      -0.834000       15.9994           0
     58181 WT5      2910     TIP3     H1       HT       0.417000        1.0080           0
     58182 WT5      2910     TIP3     H2       HT       0.417000        1.0080           0
     58183 WT5      2912     TIP3     OH2      OT      -0.834000       15.9994           0
     58184 WT5      2912     TIP3     H1       HT       0.417000        1.0080           0
     58185 WT5      2912     TIP3     H2       HT       0.417000        1.0080           0
     58186 WT5      2913     TIP3     OH2      OT      -0.834000       15.9994           0
     58187 WT5      2913     TIP3     H1       HT       0.417000        1.0080           0
     58188 WT5      2913     TIP3     H2       HT       0.417000        1.0080           0
     58189 WT5      2914     TIP3     OH2      OT      -0.834000       15.9994           0
     58190 WT5      2914     TIP3     H1       HT       0.417000        1.0080           0
     58191 WT5      2914     TIP3     H2       HT       0.417000        1.0080           0
     58192 WT5      2917     TIP3     OH2      OT      -0.834000       15.9994           0
     58193 WT5      2917     TIP3     H1       HT       0.417000        1.0080           0
     58194 WT5      2917     TIP3     H2       HT       0.417000        1.0080           0
     58195 WT5      2918     TIP3     OH2      OT      -0.834000       15.9994           0
     58196 WT5      2918     TIP3     H1       HT       0.417000        1.0080           0
     58197 WT5      2918     TIP3     H2       HT       0.417000        1.0080           0
     58198 WT5      2919     TIP3     OH2      OT      -0.834000       15.9994           0
     58199 WT5      2919     TIP3     H1       HT       0.417000        1.0080           0
     58200 WT5      2919     TIP3     H2       HT       0.417000        1.0080           0
     58201 WT5      2920     TIP3     OH2      OT      -0.834000       15.9994           0
     58202 WT5      2920     TIP3     H1       HT       0.417000        1.0080           0
     58203 WT5      2920     TIP3     H2       HT       0.417000        1.0080           0
     58204 WT5      2921     TIP3     OH2      OT      -0.834000       15.9994           0
     58205 WT5      2921     TIP3     H1       HT       0.417000        1.0080           0
     58206 WT5      2921     TIP3     H2       HT       0.417000        1.0080           0
     58207 WT5      2922     TIP3     OH2      OT      -0.834000       15.9994           0
     58208 WT5      2922     TIP3     H1       HT       0.417000        1.0080           0
     58209 WT5      2922     TIP3     H2       HT       0.417000        1.0080           0
     58210 WT5      2925     TIP3     OH2      OT      -0.834000       15.9994           0
     58211 WT5      2925     TIP3     H1       HT       0.417000        1.0080           0
     58212 WT5      2925     TIP3     H2       HT       0.417000        1.0080           0
     58213 WT5      2926     TIP3     OH2      OT      -0.834000       15.9994           0
     58214 WT5      2926     TIP3     H1       HT       0.417000        1.0080           0
     58215 WT5      2926     TIP3     H2       HT       0.417000        1.0080           0
     58216 WT5      2927     TIP3     OH2      OT      -0.834000       15.9994           0
     58217 WT5      2927     TIP3     H1       HT       0.417000        1.0080           0
     58218 WT5      2927     TIP3     H2       HT       0.417000        1.0080           0
     58219 WT5      2928     TIP3     OH2      OT      -0.834000       15.9994           0
     58220 WT5      2928     TIP3     H1       HT       0.417000        1.0080           0
     58221 WT5      2928     TIP3     H2       HT       0.417000        1.0080           0
     58222 WT5      2930     TIP3     OH2      OT      -0.834000       15.9994           0
     58223 WT5      2930     TIP3     H1       HT       0.417000        1.0080           0
     58224 WT5      2930     TIP3     H2       HT       0.417000        1.0080           0
     58225 WT5      2931     TIP3     OH2      OT      -0.834000       15.9994           0
     58226 WT5      2931     TIP3     H1       HT       0.417000        1.0080           0
     58227 WT5      2931     TIP3     H2       HT       0.417000        1.0080           0
     58228 WT5      2932     TIP3     OH2      OT      -0.834000       15.9994           0
     58229 WT5      2932     TIP3     H1       HT       0.417000        1.0080           0
     58230 WT5      2932     TIP3     H2       HT       0.417000        1.0080           0
     58231 WT5      2933     TIP3     OH2      OT      -0.834000       15.9994           0
     58232 WT5      2933     TIP3     H1       HT       0.417000        1.0080           0
     58233 WT5      2933     TIP3     H2       HT       0.417000        1.0080           0
     58234 WT5      2936     TIP3     OH2      OT      -0.834000       15.9994           0
     58235 WT5      2936     TIP3     H1       HT       0.417000        1.0080           0
     58236 WT5      2936     TIP3     H2       HT       0.417000        1.0080           0
     58237 WT5      2937     TIP3     OH2      OT      -0.834000       15.9994           0
     58238 WT5      2937     TIP3     H1       HT       0.417000        1.0080           0
     58239 WT5      2937     TIP3     H2       HT       0.417000        1.0080           0
     58240 WT5      2940     TIP3     OH2      OT      -0.834000       15.9994           0
     58241 WT5      2940     TIP3     H1       HT       0.417000        1.0080           0
     58242 WT5      2940     TIP3     H2       HT       0.417000        1.0080           0
     58243 WT5      2943     TIP3     OH2      OT      -0.834000       15.9994           0
     58244 WT5      2943     TIP3     H1       HT       0.417000        1.0080           0
     58245 WT5      2943     TIP3     H2       HT       0.417000        1.0080           0
     58246 WT5      2945     TIP3     OH2      OT      -0.834000       15.9994           0
     58247 WT5      2945     TIP3     H1       HT       0.417000        1.0080           0
     58248 WT5      2945     TIP3     H2       HT       0.417000        1.0080           0
     58249 WT5      2947     TIP3     OH2      OT      -0.834000       15.9994           0
     58250 WT5      2947     TIP3     H1       HT       0.417000        1.0080           0
     58251 WT5      2947     TIP3     H2       HT       0.417000        1.0080           0
     58252 WT5      2949     TIP3     OH2      OT      -0.834000       15.9994           0
     58253 WT5      2949     TIP3     H1       HT       0.417000        1.0080           0
     58254 WT5      2949     TIP3     H2       HT       0.417000        1.0080           0
     58255 WT5      2951     TIP3     OH2      OT      -0.834000       15.9994           0
     58256 WT5      2951     TIP3     H1       HT       0.417000        1.0080           0
     58257 WT5      2951     TIP3     H2       HT       0.417000        1.0080           0
     58258 WT5      2952     TIP3     OH2      OT      -0.834000       15.9994           0
     58259 WT5      2952     TIP3     H1       HT       0.417000        1.0080           0
     58260 WT5      2952     TIP3     H2       HT       0.417000        1.0080           0
     58261 WT5      2956     TIP3     OH2      OT      -0.834000       15.9994           0
     58262 WT5      2956     TIP3     H1       HT       0.417000        1.0080           0
     58263 WT5      2956     TIP3     H2       HT       0.417000        1.0080           0
     58264 WT5      2957     TIP3     OH2      OT      -0.834000       15.9994           0
     58265 WT5      2957     TIP3     H1       HT       0.417000        1.0080           0
     58266 WT5      2957     TIP3     H2       HT       0.417000        1.0080           0
     58267 WT5      2959     TIP3     OH2      OT      -0.834000       15.9994           0
     58268 WT5      2959     TIP3     H1       HT       0.417000        1.0080           0
     58269 WT5      2959     TIP3     H2       HT       0.417000        1.0080           0
     58270 WT5      2960     TIP3     OH2      OT      -0.834000       15.9994           0
     58271 WT5      2960     TIP3     H1       HT       0.417000        1.0080           0
     58272 WT5      2960     TIP3     H2       HT       0.417000        1.0080           0
     58273 WT5      2961     TIP3     OH2      OT      -0.834000       15.9994           0
     58274 WT5      2961     TIP3     H1       HT       0.417000        1.0080           0
     58275 WT5      2961     TIP3     H2       HT       0.417000        1.0080           0
     58276 WT5      2962     TIP3     OH2      OT      -0.834000       15.9994           0
     58277 WT5      2962     TIP3     H1       HT       0.417000        1.0080           0
     58278 WT5      2962     TIP3     H2       HT       0.417000        1.0080           0
     58279 WT5      2963     TIP3     OH2      OT      -0.834000       15.9994           0
     58280 WT5      2963     TIP3     H1       HT       0.417000        1.0080           0
     58281 WT5      2963     TIP3     H2       HT       0.417000        1.0080           0
     58282 WT5      2964     TIP3     OH2      OT      -0.834000       15.9994           0
     58283 WT5      2964     TIP3     H1       HT       0.417000        1.0080           0
     58284 WT5      2964     TIP3     H2       HT       0.417000        1.0080           0
     58285 WT5      2965     TIP3     OH2      OT      -0.834000       15.9994           0
     58286 WT5      2965     TIP3     H1       HT       0.417000        1.0080           0
     58287 WT5      2965     TIP3     H2       HT       0.417000        1.0080           0
     58288 WT5      2967     TIP3     OH2      OT      -0.834000       15.9994           0
     58289 WT5      2967     TIP3     H1       HT       0.417000        1.0080           0
     58290 WT5      2967     TIP3     H2       HT       0.417000        1.0080           0
     58291 WT5      2971     TIP3     OH2      OT      -0.834000       15.9994           0
     58292 WT5      2971     TIP3     H1       HT       0.417000        1.0080           0
     58293 WT5      2971     TIP3     H2       HT       0.417000        1.0080           0
     58294 WT5      2972     TIP3     OH2      OT      -0.834000       15.9994           0
     58295 WT5      2972     TIP3     H1       HT       0.417000        1.0080           0
     58296 WT5      2972     TIP3     H2       HT       0.417000        1.0080           0
     58297 WT5      2974     TIP3     OH2      OT      -0.834000       15.9994           0
     58298 WT5      2974     TIP3     H1       HT       0.417000        1.0080           0
     58299 WT5      2974     TIP3     H2       HT       0.417000        1.0080           0
     58300 WT5      2976     TIP3     OH2      OT      -0.834000       15.9994           0
     58301 WT5      2976     TIP3     H1       HT       0.417000        1.0080           0
     58302 WT5      2976     TIP3     H2       HT       0.417000        1.0080           0
     58303 WT5      2978     TIP3     OH2      OT      -0.834000       15.9994           0
     58304 WT5      2978     TIP3     H1       HT       0.417000        1.0080           0
     58305 WT5      2978     TIP3     H2       HT       0.417000        1.0080           0
     58306 WT5      2979     TIP3     OH2      OT      -0.834000       15.9994           0
     58307 WT5      2979     TIP3     H1       HT       0.417000        1.0080           0
     58308 WT5      2979     TIP3     H2       HT       0.417000        1.0080           0
     58309 WT5      2980     TIP3     OH2      OT      -0.834000       15.9994           0
     58310 WT5      2980     TIP3     H1       HT       0.417000        1.0080           0
     58311 WT5      2980     TIP3     H2       HT       0.417000        1.0080           0
     58312 WT5      2982     TIP3     OH2      OT      -0.834000       15.9994           0
     58313 WT5      2982     TIP3     H1       HT       0.417000        1.0080           0
     58314 WT5      2982     TIP3     H2       HT       0.417000        1.0080           0
     58315 WT5      2985     TIP3     OH2      OT      -0.834000       15.9994           0
     58316 WT5      2985     TIP3     H1       HT       0.417000        1.0080           0
     58317 WT5      2985     TIP3     H2       HT       0.417000        1.0080           0
     58318 WT5      2986     TIP3     OH2      OT      -0.834000       15.9994           0
     58319 WT5      2986     TIP3     H1       HT       0.417000        1.0080           0
     58320 WT5      2986     TIP3     H2       HT       0.417000        1.0080           0
     58321 WT5      2987     TIP3     OH2      OT      -0.834000       15.9994           0
     58322 WT5      2987     TIP3     H1       HT       0.417000        1.0080           0
     58323 WT5      2987     TIP3     H2       HT       0.417000        1.0080           0
     58324 WT5      2988     TIP3     OH2      OT      -0.834000       15.9994           0
     58325 WT5      2988     TIP3     H1       HT       0.417000        1.0080           0
     58326 WT5      2988     TIP3     H2       HT       0.417000        1.0080           0
     58327 WT5      2992     TIP3     OH2      OT      -0.834000       15.9994           0
     58328 WT5      2992     TIP3     H1       HT       0.417000        1.0080           0
     58329 WT5      2992     TIP3     H2       HT       0.417000        1.0080           0
     58330 WT5      2993     TIP3     OH2      OT      -0.834000       15.9994           0
     58331 WT5      2993     TIP3     H1       HT       0.417000        1.0080           0
     58332 WT5      2993     TIP3     H2       HT       0.417000        1.0080           0
     58333 WT5      2995     TIP3     OH2      OT      -0.834000       15.9994           0
     58334 WT5      2995     TIP3     H1       HT       0.417000        1.0080           0
     58335 WT5      2995     TIP3     H2       HT       0.417000        1.0080           0
     58336 WT5      2996     TIP3     OH2      OT      -0.834000       15.9994           0
     58337 WT5      2996     TIP3     H1       HT       0.417000        1.0080           0
     58338 WT5      2996     TIP3     H2       HT       0.417000        1.0080           0
     58339 WT5      2997     TIP3     OH2      OT      -0.834000       15.9994           0
     58340 WT5      2997     TIP3     H1       HT       0.417000        1.0080           0
     58341 WT5      2997     TIP3     H2       HT       0.417000        1.0080           0
     58342 WT5      2998     TIP3     OH2      OT      -0.834000       15.9994           0
     58343 WT5      2998     TIP3     H1       HT       0.417000        1.0080           0
     58344 WT5      2998     TIP3     H2       HT       0.417000        1.0080           0
     58345 WT5      3000     TIP3     OH2      OT      -0.834000       15.9994           0
     58346 WT5      3000     TIP3     H1       HT       0.417000        1.0080           0
     58347 WT5      3000     TIP3     H2       HT       0.417000        1.0080           0
     58348 WT5      3001     TIP3     OH2      OT      -0.834000       15.9994           0
     58349 WT5      3001     TIP3     H1       HT       0.417000        1.0080           0
     58350 WT5      3001     TIP3     H2       HT       0.417000        1.0080           0
     58351 WT5      3003     TIP3     OH2      OT      -0.834000       15.9994           0
     58352 WT5      3003     TIP3     H1       HT       0.417000        1.0080           0
     58353 WT5      3003     TIP3     H2       HT       0.417000        1.0080           0
     58354 WT5      3007     TIP3     OH2      OT      -0.834000       15.9994           0
     58355 WT5      3007     TIP3     H1       HT       0.417000        1.0080           0
     58356 WT5      3007     TIP3     H2       HT       0.417000        1.0080           0
     58357 WT5      3008     TIP3     OH2      OT      -0.834000       15.9994           0
     58358 WT5      3008     TIP3     H1       HT       0.417000        1.0080           0
     58359 WT5      3008     TIP3     H2       HT       0.417000        1.0080           0
     58360 WT5      3009     TIP3     OH2      OT      -0.834000       15.9994           0
     58361 WT5      3009     TIP3     H1       HT       0.417000        1.0080           0
     58362 WT5      3009     TIP3     H2       HT       0.417000        1.0080           0
     58363 WT5      3010     TIP3     OH2      OT      -0.834000       15.9994           0
     58364 WT5      3010     TIP3     H1       HT       0.417000        1.0080           0
     58365 WT5      3010     TIP3     H2       HT       0.417000        1.0080           0
     58366 WT5      3011     TIP3     OH2      OT      -0.834000       15.9994           0
     58367 WT5      3011     TIP3     H1       HT       0.417000        1.0080           0
     58368 WT5      3011     TIP3     H2       HT       0.417000        1.0080           0
     58369 WT5      3012     TIP3     OH2      OT      -0.834000       15.9994           0
     58370 WT5      3012     TIP3     H1       HT       0.417000        1.0080           0
     58371 WT5      3012     TIP3     H2       HT       0.417000        1.0080           0
     58372 WT5      3013     TIP3     OH2      OT      -0.834000       15.9994           0
     58373 WT5      3013     TIP3     H1       HT       0.417000        1.0080           0
     58374 WT5      3013     TIP3     H2       HT       0.417000        1.0080           0
     58375 WT5      3014     TIP3     OH2      OT      -0.834000       15.9994           0
     58376 WT5      3014     TIP3     H1       HT       0.417000        1.0080           0
     58377 WT5      3014     TIP3     H2       HT       0.417000        1.0080           0
     58378 WT5      3015     TIP3     OH2      OT      -0.834000       15.9994           0
     58379 WT5      3015     TIP3     H1       HT       0.417000        1.0080           0
     58380 WT5      3015     TIP3     H2       HT       0.417000        1.0080           0
     58381 WT5      3016     TIP3     OH2      OT      -0.834000       15.9994           0
     58382 WT5      3016     TIP3     H1       HT       0.417000        1.0080           0
     58383 WT5      3016     TIP3     H2       HT       0.417000        1.0080           0
     58384 WT5      3018     TIP3     OH2      OT      -0.834000       15.9994           0
     58385 WT5      3018     TIP3     H1       HT       0.417000        1.0080           0
     58386 WT5      3018     TIP3     H2       HT       0.417000        1.0080           0
     58387 WT5      3021     TIP3     OH2      OT      -0.834000       15.9994           0
     58388 WT5      3021     TIP3     H1       HT       0.417000        1.0080           0
     58389 WT5      3021     TIP3     H2       HT       0.417000        1.0080           0
     58390 WT5      3022     TIP3     OH2      OT      -0.834000       15.9994           0
     58391 WT5      3022     TIP3     H1       HT       0.417000        1.0080           0
     58392 WT5      3022     TIP3     H2       HT       0.417000        1.0080           0
     58393 WT5      3023     TIP3     OH2      OT      -0.834000       15.9994           0
     58394 WT5      3023     TIP3     H1       HT       0.417000        1.0080           0
     58395 WT5      3023     TIP3     H2       HT       0.417000        1.0080           0
     58396 WT5      3024     TIP3     OH2      OT      -0.834000       15.9994           0
     58397 WT5      3024     TIP3     H1       HT       0.417000        1.0080           0
     58398 WT5      3024     TIP3     H2       HT       0.417000        1.0080           0
     58399 WT5      3025     TIP3     OH2      OT      -0.834000       15.9994           0
     58400 WT5      3025     TIP3     H1       HT       0.417000        1.0080           0
     58401 WT5      3025     TIP3     H2       HT       0.417000        1.0080           0
     58402 WT5      3027     TIP3     OH2      OT      -0.834000       15.9994           0
     58403 WT5      3027     TIP3     H1       HT       0.417000        1.0080           0
     58404 WT5      3027     TIP3     H2       HT       0.417000        1.0080           0
     58405 WT5      3028     TIP3     OH2      OT      -0.834000       15.9994           0
     58406 WT5      3028     TIP3     H1       HT       0.417000        1.0080           0
     58407 WT5      3028     TIP3     H2       HT       0.417000        1.0080           0
     58408 WT5      3029     TIP3     OH2      OT      -0.834000       15.9994           0
     58409 WT5      3029     TIP3     H1       HT       0.417000        1.0080           0
     58410 WT5      3029     TIP3     H2       HT       0.417000        1.0080           0
     58411 WT5      3032     TIP3     OH2      OT      -0.834000       15.9994           0
     58412 WT5      3032     TIP3     H1       HT       0.417000        1.0080           0
     58413 WT5      3032     TIP3     H2       HT       0.417000        1.0080           0
     58414 WT5      3033     TIP3     OH2      OT      -0.834000       15.9994           0
     58415 WT5      3033     TIP3     H1       HT       0.417000        1.0080           0
     58416 WT5      3033     TIP3     H2       HT       0.417000        1.0080           0
     58417 WT5      3034     TIP3     OH2      OT      -0.834000       15.9994           0
     58418 WT5      3034     TIP3     H1       HT       0.417000        1.0080           0
     58419 WT5      3034     TIP3     H2       HT       0.417000        1.0080           0
     58420 WT5      3035     TIP3     OH2      OT      -0.834000       15.9994           0
     58421 WT5      3035     TIP3     H1       HT       0.417000        1.0080           0
     58422 WT5      3035     TIP3     H2       HT       0.417000        1.0080           0
     58423 WT5      3037     TIP3     OH2      OT      -0.834000       15.9994           0
     58424 WT5      3037     TIP3     H1       HT       0.417000        1.0080           0
     58425 WT5      3037     TIP3     H2       HT       0.417000        1.0080           0
     58426 WT5      3038     TIP3     OH2      OT      -0.834000       15.9994           0
     58427 WT5      3038     TIP3     H1       HT       0.417000        1.0080           0
     58428 WT5      3038     TIP3     H2       HT       0.417000        1.0080           0
     58429 WT5      3039     TIP3     OH2      OT      -0.834000       15.9994           0
     58430 WT5      3039     TIP3     H1       HT       0.417000        1.0080           0
     58431 WT5      3039     TIP3     H2       HT       0.417000        1.0080           0
     58432 WT5      3040     TIP3     OH2      OT      -0.834000       15.9994           0
     58433 WT5      3040     TIP3     H1       HT       0.417000        1.0080           0
     58434 WT5      3040     TIP3     H2       HT       0.417000        1.0080           0
     58435 WT5      3041     TIP3     OH2      OT      -0.834000       15.9994           0
     58436 WT5      3041     TIP3     H1       HT       0.417000        1.0080           0
     58437 WT5      3041     TIP3     H2       HT       0.417000        1.0080           0
     58438 WT5      3043     TIP3     OH2      OT      -0.834000       15.9994           0
     58439 WT5      3043     TIP3     H1       HT       0.417000        1.0080           0
     58440 WT5      3043     TIP3     H2       HT       0.417000        1.0080           0
     58441 WT5      3044     TIP3     OH2      OT      -0.834000       15.9994           0
     58442 WT5      3044     TIP3     H1       HT       0.417000        1.0080           0
     58443 WT5      3044     TIP3     H2       HT       0.417000        1.0080           0
     58444 WT5      3045     TIP3     OH2      OT      -0.834000       15.9994           0
     58445 WT5      3045     TIP3     H1       HT       0.417000        1.0080           0
     58446 WT5      3045     TIP3     H2       HT       0.417000        1.0080           0
     58447 WT5      3047     TIP3     OH2      OT      -0.834000       15.9994           0
     58448 WT5      3047     TIP3     H1       HT       0.417000        1.0080           0
     58449 WT5      3047     TIP3     H2       HT       0.417000        1.0080           0
     58450 WT5      3048     TIP3     OH2      OT      -0.834000       15.9994           0
     58451 WT5      3048     TIP3     H1       HT       0.417000        1.0080           0
     58452 WT5      3048     TIP3     H2       HT       0.417000        1.0080           0
     58453 WT5      3049     TIP3     OH2      OT      -0.834000       15.9994           0
     58454 WT5      3049     TIP3     H1       HT       0.417000        1.0080           0
     58455 WT5      3049     TIP3     H2       HT       0.417000        1.0080           0
     58456 WT5      3052     TIP3     OH2      OT      -0.834000       15.9994           0
     58457 WT5      3052     TIP3     H1       HT       0.417000        1.0080           0
     58458 WT5      3052     TIP3     H2       HT       0.417000        1.0080           0
     58459 WT5      3053     TIP3     OH2      OT      -0.834000       15.9994           0
     58460 WT5      3053     TIP3     H1       HT       0.417000        1.0080           0
     58461 WT5      3053     TIP3     H2       HT       0.417000        1.0080           0
     58462 WT5      3054     TIP3     OH2      OT      -0.834000       15.9994           0
     58463 WT5      3054     TIP3     H1       HT       0.417000        1.0080           0
     58464 WT5      3054     TIP3     H2       HT       0.417000        1.0080           0
     58465 WT5      3055     TIP3     OH2      OT      -0.834000       15.9994           0
     58466 WT5      3055     TIP3     H1       HT       0.417000        1.0080           0
     58467 WT5      3055     TIP3     H2       HT       0.417000        1.0080           0
     58468 WT5      3056     TIP3     OH2      OT      -0.834000       15.9994           0
     58469 WT5      3056     TIP3     H1       HT       0.417000        1.0080           0
     58470 WT5      3056     TIP3     H2       HT       0.417000        1.0080           0
     58471 WT5      3057     TIP3     OH2      OT      -0.834000       15.9994           0
     58472 WT5      3057     TIP3     H1       HT       0.417000        1.0080           0
     58473 WT5      3057     TIP3     H2       HT       0.417000        1.0080           0
     58474 WT5      3059     TIP3     OH2      OT      -0.834000       15.9994           0
     58475 WT5      3059     TIP3     H1       HT       0.417000        1.0080           0
     58476 WT5      3059     TIP3     H2       HT       0.417000        1.0080           0
     58477 WT5      3063     TIP3     OH2      OT      -0.834000       15.9994           0
     58478 WT5      3063     TIP3     H1       HT       0.417000        1.0080           0
     58479 WT5      3063     TIP3     H2       HT       0.417000        1.0080           0
     58480 WT5      3064     TIP3     OH2      OT      -0.834000       15.9994           0
     58481 WT5      3064     TIP3     H1       HT       0.417000        1.0080           0
     58482 WT5      3064     TIP3     H2       HT       0.417000        1.0080           0
     58483 WT5      3065     TIP3     OH2      OT      -0.834000       15.9994           0
     58484 WT5      3065     TIP3     H1       HT       0.417000        1.0080           0
     58485 WT5      3065     TIP3     H2       HT       0.417000        1.0080           0
     58486 WT5      3066     TIP3     OH2      OT      -0.834000       15.9994           0
     58487 WT5      3066     TIP3     H1       HT       0.417000        1.0080           0
     58488 WT5      3066     TIP3     H2       HT       0.417000        1.0080           0
     58489 WT5      3069     TIP3     OH2      OT      -0.834000       15.9994           0
     58490 WT5      3069     TIP3     H1       HT       0.417000        1.0080           0
     58491 WT5      3069     TIP3     H2       HT       0.417000        1.0080           0
     58492 WT5      3070     TIP3     OH2      OT      -0.834000       15.9994           0
     58493 WT5      3070     TIP3     H1       HT       0.417000        1.0080           0
     58494 WT5      3070     TIP3     H2       HT       0.417000        1.0080           0
     58495 WT5      3071     TIP3     OH2      OT      -0.834000       15.9994           0
     58496 WT5      3071     TIP3     H1       HT       0.417000        1.0080           0
     58497 WT5      3071     TIP3     H2       HT       0.417000        1.0080           0
     58498 WT5      3072     TIP3     OH2      OT      -0.834000       15.9994           0
     58499 WT5      3072     TIP3     H1       HT       0.417000        1.0080           0
     58500 WT5      3072     TIP3     H2       HT       0.417000        1.0080           0
     58501 WT5      3073     TIP3     OH2      OT      -0.834000       15.9994           0
     58502 WT5      3073     TIP3     H1       HT       0.417000        1.0080           0
     58503 WT5      3073     TIP3     H2       HT       0.417000        1.0080           0
     58504 WT5      3074     TIP3     OH2      OT      -0.834000       15.9994           0
     58505 WT5      3074     TIP3     H1       HT       0.417000        1.0080           0
     58506 WT5      3074     TIP3     H2       HT       0.417000        1.0080           0
     58507 WT5      3079     TIP3     OH2      OT      -0.834000       15.9994           0
     58508 WT5      3079     TIP3     H1       HT       0.417000        1.0080           0
     58509 WT5      3079     TIP3     H2       HT       0.417000        1.0080           0
     58510 WT5      3080     TIP3     OH2      OT      -0.834000       15.9994           0
     58511 WT5      3080     TIP3     H1       HT       0.417000        1.0080           0
     58512 WT5      3080     TIP3     H2       HT       0.417000        1.0080           0
     58513 WT5      3081     TIP3     OH2      OT      -0.834000       15.9994           0
     58514 WT5      3081     TIP3     H1       HT       0.417000        1.0080           0
     58515 WT5      3081     TIP3     H2       HT       0.417000        1.0080           0
     58516 WT5      3083     TIP3     OH2      OT      -0.834000       15.9994           0
     58517 WT5      3083     TIP3     H1       HT       0.417000        1.0080           0
     58518 WT5      3083     TIP3     H2       HT       0.417000        1.0080           0
     58519 WT5      3084     TIP3     OH2      OT      -0.834000       15.9994           0
     58520 WT5      3084     TIP3     H1       HT       0.417000        1.0080           0
     58521 WT5      3084     TIP3     H2       HT       0.417000        1.0080           0
     58522 WT5      3086     TIP3     OH2      OT      -0.834000       15.9994           0
     58523 WT5      3086     TIP3     H1       HT       0.417000        1.0080           0
     58524 WT5      3086     TIP3     H2       HT       0.417000        1.0080           0
     58525 WT5      3087     TIP3     OH2      OT      -0.834000       15.9994           0
     58526 WT5      3087     TIP3     H1       HT       0.417000        1.0080           0
     58527 WT5      3087     TIP3     H2       HT       0.417000        1.0080           0
     58528 WT5      3088     TIP3     OH2      OT      -0.834000       15.9994           0
     58529 WT5      3088     TIP3     H1       HT       0.417000        1.0080           0
     58530 WT5      3088     TIP3     H2       HT       0.417000        1.0080           0
     58531 WT5      3089     TIP3     OH2      OT      -0.834000       15.9994           0
     58532 WT5      3089     TIP3     H1       HT       0.417000        1.0080           0
     58533 WT5      3089     TIP3     H2       HT       0.417000        1.0080           0
     58534 WT5      3091     TIP3     OH2      OT      -0.834000       15.9994           0
     58535 WT5      3091     TIP3     H1       HT       0.417000        1.0080           0
     58536 WT5      3091     TIP3     H2       HT       0.417000        1.0080           0
     58537 WT5      3096     TIP3     OH2      OT      -0.834000       15.9994           0
     58538 WT5      3096     TIP3     H1       HT       0.417000        1.0080           0
     58539 WT5      3096     TIP3     H2       HT       0.417000        1.0080           0
     58540 WT5      3100     TIP3     OH2      OT      -0.834000       15.9994           0
     58541 WT5      3100     TIP3     H1       HT       0.417000        1.0080           0
     58542 WT5      3100     TIP3     H2       HT       0.417000        1.0080           0
     58543 WT5      3102     TIP3     OH2      OT      -0.834000       15.9994           0
     58544 WT5      3102     TIP3     H1       HT       0.417000        1.0080           0
     58545 WT5      3102     TIP3     H2       HT       0.417000        1.0080           0
     58546 WT5      3103     TIP3     OH2      OT      -0.834000       15.9994           0
     58547 WT5      3103     TIP3     H1       HT       0.417000        1.0080           0
     58548 WT5      3103     TIP3     H2       HT       0.417000        1.0080           0
     58549 WT5      3104     TIP3     OH2      OT      -0.834000       15.9994           0
     58550 WT5      3104     TIP3     H1       HT       0.417000        1.0080           0
     58551 WT5      3104     TIP3     H2       HT       0.417000        1.0080           0
     58552 WT5      3105     TIP3     OH2      OT      -0.834000       15.9994           0
     58553 WT5      3105     TIP3     H1       HT       0.417000        1.0080           0
     58554 WT5      3105     TIP3     H2       HT       0.417000        1.0080           0
     58555 WT5      3108     TIP3     OH2      OT      -0.834000       15.9994           0
     58556 WT5      3108     TIP3     H1       HT       0.417000        1.0080           0
     58557 WT5      3108     TIP3     H2       HT       0.417000        1.0080           0
     58558 WT5      3109     TIP3     OH2      OT      -0.834000       15.9994           0
     58559 WT5      3109     TIP3     H1       HT       0.417000        1.0080           0
     58560 WT5      3109     TIP3     H2       HT       0.417000        1.0080           0
     58561 WT5      3113     TIP3     OH2      OT      -0.834000       15.9994           0
     58562 WT5      3113     TIP3     H1       HT       0.417000        1.0080           0
     58563 WT5      3113     TIP3     H2       HT       0.417000        1.0080           0
     58564 WT5      3115     TIP3     OH2      OT      -0.834000       15.9994           0
     58565 WT5      3115     TIP3     H1       HT       0.417000        1.0080           0
     58566 WT5      3115     TIP3     H2       HT       0.417000        1.0080           0
     58567 WT5      3121     TIP3     OH2      OT      -0.834000       15.9994           0
     58568 WT5      3121     TIP3     H1       HT       0.417000        1.0080           0
     58569 WT5      3121     TIP3     H2       HT       0.417000        1.0080           0
     58570 WT5      3122     TIP3     OH2      OT      -0.834000       15.9994           0
     58571 WT5      3122     TIP3     H1       HT       0.417000        1.0080           0
     58572 WT5      3122     TIP3     H2       HT       0.417000        1.0080           0
     58573 WT5      3124     TIP3     OH2      OT      -0.834000       15.9994           0
     58574 WT5      3124     TIP3     H1       HT       0.417000        1.0080           0
     58575 WT5      3124     TIP3     H2       HT       0.417000        1.0080           0
     58576 WT5      3126     TIP3     OH2      OT      -0.834000       15.9994           0
     58577 WT5      3126     TIP3     H1       HT       0.417000        1.0080           0
     58578 WT5      3126     TIP3     H2       HT       0.417000        1.0080           0
     58579 WT5      3127     TIP3     OH2      OT      -0.834000       15.9994           0
     58580 WT5      3127     TIP3     H1       HT       0.417000        1.0080           0
     58581 WT5      3127     TIP3     H2       HT       0.417000        1.0080           0
     58582 WT5      3128     TIP3     OH2      OT      -0.834000       15.9994           0
     58583 WT5      3128     TIP3     H1       HT       0.417000        1.0080           0
     58584 WT5      3128     TIP3     H2       HT       0.417000        1.0080           0
     58585 WT5      3131     TIP3     OH2      OT      -0.834000       15.9994           0
     58586 WT5      3131     TIP3     H1       HT       0.417000        1.0080           0
     58587 WT5      3131     TIP3     H2       HT       0.417000        1.0080           0
     58588 WT5      3132     TIP3     OH2      OT      -0.834000       15.9994           0
     58589 WT5      3132     TIP3     H1       HT       0.417000        1.0080           0
     58590 WT5      3132     TIP3     H2       HT       0.417000        1.0080           0
     58591 WT5      3134     TIP3     OH2      OT      -0.834000       15.9994           0
     58592 WT5      3134     TIP3     H1       HT       0.417000        1.0080           0
     58593 WT5      3134     TIP3     H2       HT       0.417000        1.0080           0
     58594 WT5      3136     TIP3     OH2      OT      -0.834000       15.9994           0
     58595 WT5      3136     TIP3     H1       HT       0.417000        1.0080           0
     58596 WT5      3136     TIP3     H2       HT       0.417000        1.0080           0
     58597 WT5      3137     TIP3     OH2      OT      -0.834000       15.9994           0
     58598 WT5      3137     TIP3     H1       HT       0.417000        1.0080           0
     58599 WT5      3137     TIP3     H2       HT       0.417000        1.0080           0
     58600 WT5      3139     TIP3     OH2      OT      -0.834000       15.9994           0
     58601 WT5      3139     TIP3     H1       HT       0.417000        1.0080           0
     58602 WT5      3139     TIP3     H2       HT       0.417000        1.0080           0
     58603 WT5      3140     TIP3     OH2      OT      -0.834000       15.9994           0
     58604 WT5      3140     TIP3     H1       HT       0.417000        1.0080           0
     58605 WT5      3140     TIP3     H2       HT       0.417000        1.0080           0
     58606 WT5      3143     TIP3     OH2      OT      -0.834000       15.9994           0
     58607 WT5      3143     TIP3     H1       HT       0.417000        1.0080           0
     58608 WT5      3143     TIP3     H2       HT       0.417000        1.0080           0
     58609 WT5      3147     TIP3     OH2      OT      -0.834000       15.9994           0
     58610 WT5      3147     TIP3     H1       HT       0.417000        1.0080           0
     58611 WT5      3147     TIP3     H2       HT       0.417000        1.0080           0
     58612 WT5      3148     TIP3     OH2      OT      -0.834000       15.9994           0
     58613 WT5      3148     TIP3     H1       HT       0.417000        1.0080           0
     58614 WT5      3148     TIP3     H2       HT       0.417000        1.0080           0
     58615 WT5      3150     TIP3     OH2      OT      -0.834000       15.9994           0
     58616 WT5      3150     TIP3     H1       HT       0.417000        1.0080           0
     58617 WT5      3150     TIP3     H2       HT       0.417000        1.0080           0
     58618 WT5      3152     TIP3     OH2      OT      -0.834000       15.9994           0
     58619 WT5      3152     TIP3     H1       HT       0.417000        1.0080           0
     58620 WT5      3152     TIP3     H2       HT       0.417000        1.0080           0
     58621 WT5      3153     TIP3     OH2      OT      -0.834000       15.9994           0
     58622 WT5      3153     TIP3     H1       HT       0.417000        1.0080           0
     58623 WT5      3153     TIP3     H2       HT       0.417000        1.0080           0
     58624 WT5      3157     TIP3     OH2      OT      -0.834000       15.9994           0
     58625 WT5      3157     TIP3     H1       HT       0.417000        1.0080           0
     58626 WT5      3157     TIP3     H2       HT       0.417000        1.0080           0
     58627 WT5      3158     TIP3     OH2      OT      -0.834000       15.9994           0
     58628 WT5      3158     TIP3     H1       HT       0.417000        1.0080           0
     58629 WT5      3158     TIP3     H2       HT       0.417000        1.0080           0
     58630 WT5      3161     TIP3     OH2      OT      -0.834000       15.9994           0
     58631 WT5      3161     TIP3     H1       HT       0.417000        1.0080           0
     58632 WT5      3161     TIP3     H2       HT       0.417000        1.0080           0
     58633 WT5      3164     TIP3     OH2      OT      -0.834000       15.9994           0
     58634 WT5      3164     TIP3     H1       HT       0.417000        1.0080           0
     58635 WT5      3164     TIP3     H2       HT       0.417000        1.0080           0
     58636 WT5      3166     TIP3     OH2      OT      -0.834000       15.9994           0
     58637 WT5      3166     TIP3     H1       HT       0.417000        1.0080           0
     58638 WT5      3166     TIP3     H2       HT       0.417000        1.0080           0
     58639 WT5      3167     TIP3     OH2      OT      -0.834000       15.9994           0
     58640 WT5      3167     TIP3     H1       HT       0.417000        1.0080           0
     58641 WT5      3167     TIP3     H2       HT       0.417000        1.0080           0
     58642 WT5      3168     TIP3     OH2      OT      -0.834000       15.9994           0
     58643 WT5      3168     TIP3     H1       HT       0.417000        1.0080           0
     58644 WT5      3168     TIP3     H2       HT       0.417000        1.0080           0
     58645 WT5      3170     TIP3     OH2      OT      -0.834000       15.9994           0
     58646 WT5      3170     TIP3     H1       HT       0.417000        1.0080           0
     58647 WT5      3170     TIP3     H2       HT       0.417000        1.0080           0
     58648 WT5      3172     TIP3     OH2      OT      -0.834000       15.9994           0
     58649 WT5      3172     TIP3     H1       HT       0.417000        1.0080           0
     58650 WT5      3172     TIP3     H2       HT       0.417000        1.0080           0
     58651 WT5      3173     TIP3     OH2      OT      -0.834000       15.9994           0
     58652 WT5      3173     TIP3     H1       HT       0.417000        1.0080           0
     58653 WT5      3173     TIP3     H2       HT       0.417000        1.0080           0
     58654 WT5      3177     TIP3     OH2      OT      -0.834000       15.9994           0
     58655 WT5      3177     TIP3     H1       HT       0.417000        1.0080           0
     58656 WT5      3177     TIP3     H2       HT       0.417000        1.0080           0
     58657 WT5      3179     TIP3     OH2      OT      -0.834000       15.9994           0
     58658 WT5      3179     TIP3     H1       HT       0.417000        1.0080           0
     58659 WT5      3179     TIP3     H2       HT       0.417000        1.0080           0
     58660 WT5      3181     TIP3     OH2      OT      -0.834000       15.9994           0
     58661 WT5      3181     TIP3     H1       HT       0.417000        1.0080           0
     58662 WT5      3181     TIP3     H2       HT       0.417000        1.0080           0
     58663 WT5      3183     TIP3     OH2      OT      -0.834000       15.9994           0
     58664 WT5      3183     TIP3     H1       HT       0.417000        1.0080           0
     58665 WT5      3183     TIP3     H2       HT       0.417000        1.0080           0
     58666 WT5      3184     TIP3     OH2      OT      -0.834000       15.9994           0
     58667 WT5      3184     TIP3     H1       HT       0.417000        1.0080           0
     58668 WT5      3184     TIP3     H2       HT       0.417000        1.0080           0
     58669 WT5      3185     TIP3     OH2      OT      -0.834000       15.9994           0
     58670 WT5      3185     TIP3     H1       HT       0.417000        1.0080           0
     58671 WT5      3185     TIP3     H2       HT       0.417000        1.0080           0
     58672 WT5      3189     TIP3     OH2      OT      -0.834000       15.9994           0
     58673 WT5      3189     TIP3     H1       HT       0.417000        1.0080           0
     58674 WT5      3189     TIP3     H2       HT       0.417000        1.0080           0
     58675 WT5      3190     TIP3     OH2      OT      -0.834000       15.9994           0
     58676 WT5      3190     TIP3     H1       HT       0.417000        1.0080           0
     58677 WT5      3190     TIP3     H2       HT       0.417000        1.0080           0
     58678 WT5      3191     TIP3     OH2      OT      -0.834000       15.9994           0
     58679 WT5      3191     TIP3     H1       HT       0.417000        1.0080           0
     58680 WT5      3191     TIP3     H2       HT       0.417000        1.0080           0
     58681 WT5      3192     TIP3     OH2      OT      -0.834000       15.9994           0
     58682 WT5      3192     TIP3     H1       HT       0.417000        1.0080           0
     58683 WT5      3192     TIP3     H2       HT       0.417000        1.0080           0
     58684 WT5      3195     TIP3     OH2      OT      -0.834000       15.9994           0
     58685 WT5      3195     TIP3     H1       HT       0.417000        1.0080           0
     58686 WT5      3195     TIP3     H2       HT       0.417000        1.0080           0
     58687 WT5      3196     TIP3     OH2      OT      -0.834000       15.9994           0
     58688 WT5      3196     TIP3     H1       HT       0.417000        1.0080           0
     58689 WT5      3196     TIP3     H2       HT       0.417000        1.0080           0
     58690 WT5      3197     TIP3     OH2      OT      -0.834000       15.9994           0
     58691 WT5      3197     TIP3     H1       HT       0.417000        1.0080           0
     58692 WT5      3197     TIP3     H2       HT       0.417000        1.0080           0
     58693 WT5      3198     TIP3     OH2      OT      -0.834000       15.9994           0
     58694 WT5      3198     TIP3     H1       HT       0.417000        1.0080           0
     58695 WT5      3198     TIP3     H2       HT       0.417000        1.0080           0
     58696 WT5      3204     TIP3     OH2      OT      -0.834000       15.9994           0
     58697 WT5      3204     TIP3     H1       HT       0.417000        1.0080           0
     58698 WT5      3204     TIP3     H2       HT       0.417000        1.0080           0
     58699 WT5      3206     TIP3     OH2      OT      -0.834000       15.9994           0
     58700 WT5      3206     TIP3     H1       HT       0.417000        1.0080           0
     58701 WT5      3206     TIP3     H2       HT       0.417000        1.0080           0
     58702 WT5      3208     TIP3     OH2      OT      -0.834000       15.9994           0
     58703 WT5      3208     TIP3     H1       HT       0.417000        1.0080           0
     58704 WT5      3208     TIP3     H2       HT       0.417000        1.0080           0
     58705 WT5      3210     TIP3     OH2      OT      -0.834000       15.9994           0
     58706 WT5      3210     TIP3     H1       HT       0.417000        1.0080           0
     58707 WT5      3210     TIP3     H2       HT       0.417000        1.0080           0
     58708 WT5      3215     TIP3     OH2      OT      -0.834000       15.9994           0
     58709 WT5      3215     TIP3     H1       HT       0.417000        1.0080           0
     58710 WT5      3215     TIP3     H2       HT       0.417000        1.0080           0
     58711 WT5      3216     TIP3     OH2      OT      -0.834000       15.9994           0
     58712 WT5      3216     TIP3     H1       HT       0.417000        1.0080           0
     58713 WT5      3216     TIP3     H2       HT       0.417000        1.0080           0
     58714 WT5      3218     TIP3     OH2      OT      -0.834000       15.9994           0
     58715 WT5      3218     TIP3     H1       HT       0.417000        1.0080           0
     58716 WT5      3218     TIP3     H2       HT       0.417000        1.0080           0
     58717 WT5      3219     TIP3     OH2      OT      -0.834000       15.9994           0
     58718 WT5      3219     TIP3     H1       HT       0.417000        1.0080           0
     58719 WT5      3219     TIP3     H2       HT       0.417000        1.0080           0
     58720 WT5      3220     TIP3     OH2      OT      -0.834000       15.9994           0
     58721 WT5      3220     TIP3     H1       HT       0.417000        1.0080           0
     58722 WT5      3220     TIP3     H2       HT       0.417000        1.0080           0
     58723 WT5      3221     TIP3     OH2      OT      -0.834000       15.9994           0
     58724 WT5      3221     TIP3     H1       HT       0.417000        1.0080           0
     58725 WT5      3221     TIP3     H2       HT       0.417000        1.0080           0
     58726 WT5      3223     TIP3     OH2      OT      -0.834000       15.9994           0
     58727 WT5      3223     TIP3     H1       HT       0.417000        1.0080           0
     58728 WT5      3223     TIP3     H2       HT       0.417000        1.0080           0
     58729 WT5      3224     TIP3     OH2      OT      -0.834000       15.9994           0
     58730 WT5      3224     TIP3     H1       HT       0.417000        1.0080           0
     58731 WT5      3224     TIP3     H2       HT       0.417000        1.0080           0
     58732 WT5      3226     TIP3     OH2      OT      -0.834000       15.9994           0
     58733 WT5      3226     TIP3     H1       HT       0.417000        1.0080           0
     58734 WT5      3226     TIP3     H2       HT       0.417000        1.0080           0
     58735 WT5      3227     TIP3     OH2      OT      -0.834000       15.9994           0
     58736 WT5      3227     TIP3     H1       HT       0.417000        1.0080           0
     58737 WT5      3227     TIP3     H2       HT       0.417000        1.0080           0
     58738 WT5      3228     TIP3     OH2      OT      -0.834000       15.9994           0
     58739 WT5      3228     TIP3     H1       HT       0.417000        1.0080           0
     58740 WT5      3228     TIP3     H2       HT       0.417000        1.0080           0
     58741 WT5      3232     TIP3     OH2      OT      -0.834000       15.9994           0
     58742 WT5      3232     TIP3     H1       HT       0.417000        1.0080           0
     58743 WT5      3232     TIP3     H2       HT       0.417000        1.0080           0
     58744 WT5      3234     TIP3     OH2      OT      -0.834000       15.9994           0
     58745 WT5      3234     TIP3     H1       HT       0.417000        1.0080           0
     58746 WT5      3234     TIP3     H2       HT       0.417000        1.0080           0
     58747 WT5      3236     TIP3     OH2      OT      -0.834000       15.9994           0
     58748 WT5      3236     TIP3     H1       HT       0.417000        1.0080           0
     58749 WT5      3236     TIP3     H2       HT       0.417000        1.0080           0
     58750 WT5      3237     TIP3     OH2      OT      -0.834000       15.9994           0
     58751 WT5      3237     TIP3     H1       HT       0.417000        1.0080           0
     58752 WT5      3237     TIP3     H2       HT       0.417000        1.0080           0
     58753 WT5      3240     TIP3     OH2      OT      -0.834000       15.9994           0
     58754 WT5      3240     TIP3     H1       HT       0.417000        1.0080           0
     58755 WT5      3240     TIP3     H2       HT       0.417000        1.0080           0
     58756 WT5      3241     TIP3     OH2      OT      -0.834000       15.9994           0
     58757 WT5      3241     TIP3     H1       HT       0.417000        1.0080           0
     58758 WT5      3241     TIP3     H2       HT       0.417000        1.0080           0
     58759 WT5      3242     TIP3     OH2      OT      -0.834000       15.9994           0
     58760 WT5      3242     TIP3     H1       HT       0.417000        1.0080           0
     58761 WT5      3242     TIP3     H2       HT       0.417000        1.0080           0
     58762 WT5      3244     TIP3     OH2      OT      -0.834000       15.9994           0
     58763 WT5      3244     TIP3     H1       HT       0.417000        1.0080           0
     58764 WT5      3244     TIP3     H2       HT       0.417000        1.0080           0
     58765 WT5      3245     TIP3     OH2      OT      -0.834000       15.9994           0
     58766 WT5      3245     TIP3     H1       HT       0.417000        1.0080           0
     58767 WT5      3245     TIP3     H2       HT       0.417000        1.0080           0
     58768 WT5      3246     TIP3     OH2      OT      -0.834000       15.9994           0
     58769 WT5      3246     TIP3     H1       HT       0.417000        1.0080           0
     58770 WT5      3246     TIP3     H2       HT       0.417000        1.0080           0
     58771 WT5      3247     TIP3     OH2      OT      -0.834000       15.9994           0
     58772 WT5      3247     TIP3     H1       HT       0.417000        1.0080           0
     58773 WT5      3247     TIP3     H2       HT       0.417000        1.0080           0
     58774 WT5      3249     TIP3     OH2      OT      -0.834000       15.9994           0
     58775 WT5      3249     TIP3     H1       HT       0.417000        1.0080           0
     58776 WT5      3249     TIP3     H2       HT       0.417000        1.0080           0
     58777 WT5      3251     TIP3     OH2      OT      -0.834000       15.9994           0
     58778 WT5      3251     TIP3     H1       HT       0.417000        1.0080           0
     58779 WT5      3251     TIP3     H2       HT       0.417000        1.0080           0
     58780 WT5      3252     TIP3     OH2      OT      -0.834000       15.9994           0
     58781 WT5      3252     TIP3     H1       HT       0.417000        1.0080           0
     58782 WT5      3252     TIP3     H2       HT       0.417000        1.0080           0
     58783 WT5      3254     TIP3     OH2      OT      -0.834000       15.9994           0
     58784 WT5      3254     TIP3     H1       HT       0.417000        1.0080           0
     58785 WT5      3254     TIP3     H2       HT       0.417000        1.0080           0
     58786 WT5      3256     TIP3     OH2      OT      -0.834000       15.9994           0
     58787 WT5      3256     TIP3     H1       HT       0.417000        1.0080           0
     58788 WT5      3256     TIP3     H2       HT       0.417000        1.0080           0
     58789 WT5      3259     TIP3     OH2      OT      -0.834000       15.9994           0
     58790 WT5      3259     TIP3     H1       HT       0.417000        1.0080           0
     58791 WT5      3259     TIP3     H2       HT       0.417000        1.0080           0
     58792 WT5      3260     TIP3     OH2      OT      -0.834000       15.9994           0
     58793 WT5      3260     TIP3     H1       HT       0.417000        1.0080           0
     58794 WT5      3260     TIP3     H2       HT       0.417000        1.0080           0
     58795 WT5      3261     TIP3     OH2      OT      -0.834000       15.9994           0
     58796 WT5      3261     TIP3     H1       HT       0.417000        1.0080           0
     58797 WT5      3261     TIP3     H2       HT       0.417000        1.0080           0
     58798 WT5      3262     TIP3     OH2      OT      -0.834000       15.9994           0
     58799 WT5      3262     TIP3     H1       HT       0.417000        1.0080           0
     58800 WT5      3262     TIP3     H2       HT       0.417000        1.0080           0
     58801 WT5      3263     TIP3     OH2      OT      -0.834000       15.9994           0
     58802 WT5      3263     TIP3     H1       HT       0.417000        1.0080           0
     58803 WT5      3263     TIP3     H2       HT       0.417000        1.0080           0
     58804 WT5      3264     TIP3     OH2      OT      -0.834000       15.9994           0
     58805 WT5      3264     TIP3     H1       HT       0.417000        1.0080           0
     58806 WT5      3264     TIP3     H2       HT       0.417000        1.0080           0
     58807 WT5      3265     TIP3     OH2      OT      -0.834000       15.9994           0
     58808 WT5      3265     TIP3     H1       HT       0.417000        1.0080           0
     58809 WT5      3265     TIP3     H2       HT       0.417000        1.0080           0
     58810 WT5      3269     TIP3     OH2      OT      -0.834000       15.9994           0
     58811 WT5      3269     TIP3     H1       HT       0.417000        1.0080           0
     58812 WT5      3269     TIP3     H2       HT       0.417000        1.0080           0
     58813 WT5      3271     TIP3     OH2      OT      -0.834000       15.9994           0
     58814 WT5      3271     TIP3     H1       HT       0.417000        1.0080           0
     58815 WT5      3271     TIP3     H2       HT       0.417000        1.0080           0
     58816 WT5      3276     TIP3     OH2      OT      -0.834000       15.9994           0
     58817 WT5      3276     TIP3     H1       HT       0.417000        1.0080           0
     58818 WT5      3276     TIP3     H2       HT       0.417000        1.0080           0
     58819 WT5      3277     TIP3     OH2      OT      -0.834000       15.9994           0
     58820 WT5      3277     TIP3     H1       HT       0.417000        1.0080           0
     58821 WT5      3277     TIP3     H2       HT       0.417000        1.0080           0
     58822 WT5      3278     TIP3     OH2      OT      -0.834000       15.9994           0
     58823 WT5      3278     TIP3     H1       HT       0.417000        1.0080           0
     58824 WT5      3278     TIP3     H2       HT       0.417000        1.0080           0
     58825 WT5      3281     TIP3     OH2      OT      -0.834000       15.9994           0
     58826 WT5      3281     TIP3     H1       HT       0.417000        1.0080           0
     58827 WT5      3281     TIP3     H2       HT       0.417000        1.0080           0
     58828 WT5      3283     TIP3     OH2      OT      -0.834000       15.9994           0
     58829 WT5      3283     TIP3     H1       HT       0.417000        1.0080           0
     58830 WT5      3283     TIP3     H2       HT       0.417000        1.0080           0
     58831 WT5      3287     TIP3     OH2      OT      -0.834000       15.9994           0
     58832 WT5      3287     TIP3     H1       HT       0.417000        1.0080           0
     58833 WT5      3287     TIP3     H2       HT       0.417000        1.0080           0
     58834 WT5      3289     TIP3     OH2      OT      -0.834000       15.9994           0
     58835 WT5      3289     TIP3     H1       HT       0.417000        1.0080           0
     58836 WT5      3289     TIP3     H2       HT       0.417000        1.0080           0
     58837 WT5      3292     TIP3     OH2      OT      -0.834000       15.9994           0
     58838 WT5      3292     TIP3     H1       HT       0.417000        1.0080           0
     58839 WT5      3292     TIP3     H2       HT       0.417000        1.0080           0
     58840 WT5      3293     TIP3     OH2      OT      -0.834000       15.9994           0
     58841 WT5      3293     TIP3     H1       HT       0.417000        1.0080           0
     58842 WT5      3293     TIP3     H2       HT       0.417000        1.0080           0
     58843 WT5      3294     TIP3     OH2      OT      -0.834000       15.9994           0
     58844 WT5      3294     TIP3     H1       HT       0.417000        1.0080           0
     58845 WT5      3294     TIP3     H2       HT       0.417000        1.0080           0
     58846 WT5      3295     TIP3     OH2      OT      -0.834000       15.9994           0
     58847 WT5      3295     TIP3     H1       HT       0.417000        1.0080           0
     58848 WT5      3295     TIP3     H2       HT       0.417000        1.0080           0
     58849 WT5      3297     TIP3     OH2      OT      -0.834000       15.9994           0
     58850 WT5      3297     TIP3     H1       HT       0.417000        1.0080           0
     58851 WT5      3297     TIP3     H2       HT       0.417000        1.0080           0
     58852 WT5      3303     TIP3     OH2      OT      -0.834000       15.9994           0
     58853 WT5      3303     TIP3     H1       HT       0.417000        1.0080           0
     58854 WT5      3303     TIP3     H2       HT       0.417000        1.0080           0
     58855 WT5      3304     TIP3     OH2      OT      -0.834000       15.9994           0
     58856 WT5      3304     TIP3     H1       HT       0.417000        1.0080           0
     58857 WT5      3304     TIP3     H2       HT       0.417000        1.0080           0
     58858 WT5      3305     TIP3     OH2      OT      -0.834000       15.9994           0
     58859 WT5      3305     TIP3     H1       HT       0.417000        1.0080           0
     58860 WT5      3305     TIP3     H2       HT       0.417000        1.0080           0
     58861 WT5      3310     TIP3     OH2      OT      -0.834000       15.9994           0
     58862 WT5      3310     TIP3     H1       HT       0.417000        1.0080           0
     58863 WT5      3310     TIP3     H2       HT       0.417000        1.0080           0
     58864 WT5      3316     TIP3     OH2      OT      -0.834000       15.9994           0
     58865 WT5      3316     TIP3     H1       HT       0.417000        1.0080           0
     58866 WT5      3316     TIP3     H2       HT       0.417000        1.0080           0
     58867 WT5      3319     TIP3     OH2      OT      -0.834000       15.9994           0
     58868 WT5      3319     TIP3     H1       HT       0.417000        1.0080           0
     58869 WT5      3319     TIP3     H2       HT       0.417000        1.0080           0
     58870 WT5      3320     TIP3     OH2      OT      -0.834000       15.9994           0
     58871 WT5      3320     TIP3     H1       HT       0.417000        1.0080           0
     58872 WT5      3320     TIP3     H2       HT       0.417000        1.0080           0
     58873 WT5      3321     TIP3     OH2      OT      -0.834000       15.9994           0
     58874 WT5      3321     TIP3     H1       HT       0.417000        1.0080           0
     58875 WT5      3321     TIP3     H2       HT       0.417000        1.0080           0
     58876 WT5      3322     TIP3     OH2      OT      -0.834000       15.9994           0
     58877 WT5      3322     TIP3     H1       HT       0.417000        1.0080           0
     58878 WT5      3322     TIP3     H2       HT       0.417000        1.0080           0
     58879 WT5      3324     TIP3     OH2      OT      -0.834000       15.9994           0
     58880 WT5      3324     TIP3     H1       HT       0.417000        1.0080           0
     58881 WT5      3324     TIP3     H2       HT       0.417000        1.0080           0
     58882 WT5      3326     TIP3     OH2      OT      -0.834000       15.9994           0
     58883 WT5      3326     TIP3     H1       HT       0.417000        1.0080           0
     58884 WT5      3326     TIP3     H2       HT       0.417000        1.0080           0
     58885 WT5      3327     TIP3     OH2      OT      -0.834000       15.9994           0
     58886 WT5      3327     TIP3     H1       HT       0.417000        1.0080           0
     58887 WT5      3327     TIP3     H2       HT       0.417000        1.0080           0
     58888 WT5      3329     TIP3     OH2      OT      -0.834000       15.9994           0
     58889 WT5      3329     TIP3     H1       HT       0.417000        1.0080           0
     58890 WT5      3329     TIP3     H2       HT       0.417000        1.0080           0
     58891 WT5      3331     TIP3     OH2      OT      -0.834000       15.9994           0
     58892 WT5      3331     TIP3     H1       HT       0.417000        1.0080           0
     58893 WT5      3331     TIP3     H2       HT       0.417000        1.0080           0
     58894 WT5      3334     TIP3     OH2      OT      -0.834000       15.9994           0
     58895 WT5      3334     TIP3     H1       HT       0.417000        1.0080           0
     58896 WT5      3334     TIP3     H2       HT       0.417000        1.0080           0
     58897 WT5      3335     TIP3     OH2      OT      -0.834000       15.9994           0
     58898 WT5      3335     TIP3     H1       HT       0.417000        1.0080           0
     58899 WT5      3335     TIP3     H2       HT       0.417000        1.0080           0
     58900 WT5      3337     TIP3     OH2      OT      -0.834000       15.9994           0
     58901 WT5      3337     TIP3     H1       HT       0.417000        1.0080           0
     58902 WT5      3337     TIP3     H2       HT       0.417000        1.0080           0
     58903 WT5      3338     TIP3     OH2      OT      -0.834000       15.9994           0
     58904 WT5      3338     TIP3     H1       HT       0.417000        1.0080           0
     58905 WT5      3338     TIP3     H2       HT       0.417000        1.0080           0
     58906 WT5      3339     TIP3     OH2      OT      -0.834000       15.9994           0
     58907 WT5      3339     TIP3     H1       HT       0.417000        1.0080           0
     58908 WT5      3339     TIP3     H2       HT       0.417000        1.0080           0
     58909 WT5      3341     TIP3     OH2      OT      -0.834000       15.9994           0
     58910 WT5      3341     TIP3     H1       HT       0.417000        1.0080           0
     58911 WT5      3341     TIP3     H2       HT       0.417000        1.0080           0
     58912 WT5      3342     TIP3     OH2      OT      -0.834000       15.9994           0
     58913 WT5      3342     TIP3     H1       HT       0.417000        1.0080           0
     58914 WT5      3342     TIP3     H2       HT       0.417000        1.0080           0
     58915 WT5      3343     TIP3     OH2      OT      -0.834000       15.9994           0
     58916 WT5      3343     TIP3     H1       HT       0.417000        1.0080           0
     58917 WT5      3343     TIP3     H2       HT       0.417000        1.0080           0
     58918 WT5      3344     TIP3     OH2      OT      -0.834000       15.9994           0
     58919 WT5      3344     TIP3     H1       HT       0.417000        1.0080           0
     58920 WT5      3344     TIP3     H2       HT       0.417000        1.0080           0
     58921 WT5      3347     TIP3     OH2      OT      -0.834000       15.9994           0
     58922 WT5      3347     TIP3     H1       HT       0.417000        1.0080           0
     58923 WT5      3347     TIP3     H2       HT       0.417000        1.0080           0
     58924 WT5      3349     TIP3     OH2      OT      -0.834000       15.9994           0
     58925 WT5      3349     TIP3     H1       HT       0.417000        1.0080           0
     58926 WT5      3349     TIP3     H2       HT       0.417000        1.0080           0
     58927 WT5      3351     TIP3     OH2      OT      -0.834000       15.9994           0
     58928 WT5      3351     TIP3     H1       HT       0.417000        1.0080           0
     58929 WT5      3351     TIP3     H2       HT       0.417000        1.0080           0
     58930 WT5      3353     TIP3     OH2      OT      -0.834000       15.9994           0
     58931 WT5      3353     TIP3     H1       HT       0.417000        1.0080           0
     58932 WT5      3353     TIP3     H2       HT       0.417000        1.0080           0
     58933 WT5      3356     TIP3     OH2      OT      -0.834000       15.9994           0
     58934 WT5      3356     TIP3     H1       HT       0.417000        1.0080           0
     58935 WT5      3356     TIP3     H2       HT       0.417000        1.0080           0
     58936 WT5      3360     TIP3     OH2      OT      -0.834000       15.9994           0
     58937 WT5      3360     TIP3     H1       HT       0.417000        1.0080           0
     58938 WT5      3360     TIP3     H2       HT       0.417000        1.0080           0
     58939 WT5      3364     TIP3     OH2      OT      -0.834000       15.9994           0
     58940 WT5      3364     TIP3     H1       HT       0.417000        1.0080           0
     58941 WT5      3364     TIP3     H2       HT       0.417000        1.0080           0
     58942 WT5      3365     TIP3     OH2      OT      -0.834000       15.9994           0
     58943 WT5      3365     TIP3     H1       HT       0.417000        1.0080           0
     58944 WT5      3365     TIP3     H2       HT       0.417000        1.0080           0
     58945 WT5      3367     TIP3     OH2      OT      -0.834000       15.9994           0
     58946 WT5      3367     TIP3     H1       HT       0.417000        1.0080           0
     58947 WT5      3367     TIP3     H2       HT       0.417000        1.0080           0
     58948 WT5      3368     TIP3     OH2      OT      -0.834000       15.9994           0
     58949 WT5      3368     TIP3     H1       HT       0.417000        1.0080           0
     58950 WT5      3368     TIP3     H2       HT       0.417000        1.0080           0
     58951 WT5      3370     TIP3     OH2      OT      -0.834000       15.9994           0
     58952 WT5      3370     TIP3     H1       HT       0.417000        1.0080           0
     58953 WT5      3370     TIP3     H2       HT       0.417000        1.0080           0
     58954 WT5      3373     TIP3     OH2      OT      -0.834000       15.9994           0
     58955 WT5      3373     TIP3     H1       HT       0.417000        1.0080           0
     58956 WT5      3373     TIP3     H2       HT       0.417000        1.0080           0
     58957 WT5      3374     TIP3     OH2      OT      -0.834000       15.9994           0
     58958 WT5      3374     TIP3     H1       HT       0.417000        1.0080           0
     58959 WT5      3374     TIP3     H2       HT       0.417000        1.0080           0
     58960 WT5      3377     TIP3     OH2      OT      -0.834000       15.9994           0
     58961 WT5      3377     TIP3     H1       HT       0.417000        1.0080           0
     58962 WT5      3377     TIP3     H2       HT       0.417000        1.0080           0
     58963 WT5      3381     TIP3     OH2      OT      -0.834000       15.9994           0
     58964 WT5      3381     TIP3     H1       HT       0.417000        1.0080           0
     58965 WT5      3381     TIP3     H2       HT       0.417000        1.0080           0
     58966 WT5      3382     TIP3     OH2      OT      -0.834000       15.9994           0
     58967 WT5      3382     TIP3     H1       HT       0.417000        1.0080           0
     58968 WT5      3382     TIP3     H2       HT       0.417000        1.0080           0
     58969 WT5      3383     TIP3     OH2      OT      -0.834000       15.9994           0
     58970 WT5      3383     TIP3     H1       HT       0.417000        1.0080           0
     58971 WT5      3383     TIP3     H2       HT       0.417000        1.0080           0
     58972 WT5      3384     TIP3     OH2      OT      -0.834000       15.9994           0
     58973 WT5      3384     TIP3     H1       HT       0.417000        1.0080           0
     58974 WT5      3384     TIP3     H2       HT       0.417000        1.0080           0
     58975 WT5      3385     TIP3     OH2      OT      -0.834000       15.9994           0
     58976 WT5      3385     TIP3     H1       HT       0.417000        1.0080           0
     58977 WT5      3385     TIP3     H2       HT       0.417000        1.0080           0
     58978 WT5      3386     TIP3     OH2      OT      -0.834000       15.9994           0
     58979 WT5      3386     TIP3     H1       HT       0.417000        1.0080           0
     58980 WT5      3386     TIP3     H2       HT       0.417000        1.0080           0
     58981 WT5      3387     TIP3     OH2      OT      -0.834000       15.9994           0
     58982 WT5      3387     TIP3     H1       HT       0.417000        1.0080           0
     58983 WT5      3387     TIP3     H2       HT       0.417000        1.0080           0
     58984 WT5      3388     TIP3     OH2      OT      -0.834000       15.9994           0
     58985 WT5      3388     TIP3     H1       HT       0.417000        1.0080           0
     58986 WT5      3388     TIP3     H2       HT       0.417000        1.0080           0
     58987 WT5      3389     TIP3     OH2      OT      -0.834000       15.9994           0
     58988 WT5      3389     TIP3     H1       HT       0.417000        1.0080           0
     58989 WT5      3389     TIP3     H2       HT       0.417000        1.0080           0
     58990 WT5      3390     TIP3     OH2      OT      -0.834000       15.9994           0
     58991 WT5      3390     TIP3     H1       HT       0.417000        1.0080           0
     58992 WT5      3390     TIP3     H2       HT       0.417000        1.0080           0
     58993 WT5      3391     TIP3     OH2      OT      -0.834000       15.9994           0
     58994 WT5      3391     TIP3     H1       HT       0.417000        1.0080           0
     58995 WT5      3391     TIP3     H2       HT       0.417000        1.0080           0
     58996 WT5      3392     TIP3     OH2      OT      -0.834000       15.9994           0
     58997 WT5      3392     TIP3     H1       HT       0.417000        1.0080           0
     58998 WT5      3392     TIP3     H2       HT       0.417000        1.0080           0
     58999 WT5      3393     TIP3     OH2      OT      -0.834000       15.9994           0
     59000 WT5      3393     TIP3     H1       HT       0.417000        1.0080           0
     59001 WT5      3393     TIP3     H2       HT       0.417000        1.0080           0
     59002 WT5      3395     TIP3     OH2      OT      -0.834000       15.9994           0
     59003 WT5      3395     TIP3     H1       HT       0.417000        1.0080           0
     59004 WT5      3395     TIP3     H2       HT       0.417000        1.0080           0
     59005 WT5      3396     TIP3     OH2      OT      -0.834000       15.9994           0
     59006 WT5      3396     TIP3     H1       HT       0.417000        1.0080           0
     59007 WT5      3396     TIP3     H2       HT       0.417000        1.0080           0
     59008 WT5      3398     TIP3     OH2      OT      -0.834000       15.9994           0
     59009 WT5      3398     TIP3     H1       HT       0.417000        1.0080           0
     59010 WT5      3398     TIP3     H2       HT       0.417000        1.0080           0
     59011 WT5      3401     TIP3     OH2      OT      -0.834000       15.9994           0
     59012 WT5      3401     TIP3     H1       HT       0.417000        1.0080           0
     59013 WT5      3401     TIP3     H2       HT       0.417000        1.0080           0
     59014 WT5      3405     TIP3     OH2      OT      -0.834000       15.9994           0
     59015 WT5      3405     TIP3     H1       HT       0.417000        1.0080           0
     59016 WT5      3405     TIP3     H2       HT       0.417000        1.0080           0
     59017 WT5      3406     TIP3     OH2      OT      -0.834000       15.9994           0
     59018 WT5      3406     TIP3     H1       HT       0.417000        1.0080           0
     59019 WT5      3406     TIP3     H2       HT       0.417000        1.0080           0
     59020 WT5      3411     TIP3     OH2      OT      -0.834000       15.9994           0
     59021 WT5      3411     TIP3     H1       HT       0.417000        1.0080           0
     59022 WT5      3411     TIP3     H2       HT       0.417000        1.0080           0
     59023 WT5      3412     TIP3     OH2      OT      -0.834000       15.9994           0
     59024 WT5      3412     TIP3     H1       HT       0.417000        1.0080           0
     59025 WT5      3412     TIP3     H2       HT       0.417000        1.0080           0
     59026 WT5      3413     TIP3     OH2      OT      -0.834000       15.9994           0
     59027 WT5      3413     TIP3     H1       HT       0.417000        1.0080           0
     59028 WT5      3413     TIP3     H2       HT       0.417000        1.0080           0
     59029 WT5      3414     TIP3     OH2      OT      -0.834000       15.9994           0
     59030 WT5      3414     TIP3     H1       HT       0.417000        1.0080           0
     59031 WT5      3414     TIP3     H2       HT       0.417000        1.0080           0
     59032 WT5      3415     TIP3     OH2      OT      -0.834000       15.9994           0
     59033 WT5      3415     TIP3     H1       HT       0.417000        1.0080           0
     59034 WT5      3415     TIP3     H2       HT       0.417000        1.0080           0
     59035 WT5      3417     TIP3     OH2      OT      -0.834000       15.9994           0
     59036 WT5      3417     TIP3     H1       HT       0.417000        1.0080           0
     59037 WT5      3417     TIP3     H2       HT       0.417000        1.0080           0
     59038 WT5      3422     TIP3     OH2      OT      -0.834000       15.9994           0
     59039 WT5      3422     TIP3     H1       HT       0.417000        1.0080           0
     59040 WT5      3422     TIP3     H2       HT       0.417000        1.0080           0
     59041 WT5      3423     TIP3     OH2      OT      -0.834000       15.9994           0
     59042 WT5      3423     TIP3     H1       HT       0.417000        1.0080           0
     59043 WT5      3423     TIP3     H2       HT       0.417000        1.0080           0
     59044 WT5      3424     TIP3     OH2      OT      -0.834000       15.9994           0
     59045 WT5      3424     TIP3     H1       HT       0.417000        1.0080           0
     59046 WT5      3424     TIP3     H2       HT       0.417000        1.0080           0
     59047 WT5      3426     TIP3     OH2      OT      -0.834000       15.9994           0
     59048 WT5      3426     TIP3     H1       HT       0.417000        1.0080           0
     59049 WT5      3426     TIP3     H2       HT       0.417000        1.0080           0
     59050 WT5      3427     TIP3     OH2      OT      -0.834000       15.9994           0
     59051 WT5      3427     TIP3     H1       HT       0.417000        1.0080           0
     59052 WT5      3427     TIP3     H2       HT       0.417000        1.0080           0
     59053 WT5      3432     TIP3     OH2      OT      -0.834000       15.9994           0
     59054 WT5      3432     TIP3     H1       HT       0.417000        1.0080           0
     59055 WT5      3432     TIP3     H2       HT       0.417000        1.0080           0
     59056 WT5      3433     TIP3     OH2      OT      -0.834000       15.9994           0
     59057 WT5      3433     TIP3     H1       HT       0.417000        1.0080           0
     59058 WT5      3433     TIP3     H2       HT       0.417000        1.0080           0
     59059 WT5      3434     TIP3     OH2      OT      -0.834000       15.9994           0
     59060 WT5      3434     TIP3     H1       HT       0.417000        1.0080           0
     59061 WT5      3434     TIP3     H2       HT       0.417000        1.0080           0
     59062 WT5      3435     TIP3     OH2      OT      -0.834000       15.9994           0
     59063 WT5      3435     TIP3     H1       HT       0.417000        1.0080           0
     59064 WT5      3435     TIP3     H2       HT       0.417000        1.0080           0
     59065 WT5      3437     TIP3     OH2      OT      -0.834000       15.9994           0
     59066 WT5      3437     TIP3     H1       HT       0.417000        1.0080           0
     59067 WT5      3437     TIP3     H2       HT       0.417000        1.0080           0
     59068 WT5      3438     TIP3     OH2      OT      -0.834000       15.9994           0
     59069 WT5      3438     TIP3     H1       HT       0.417000        1.0080           0
     59070 WT5      3438     TIP3     H2       HT       0.417000        1.0080           0
     59071 WT5      3439     TIP3     OH2      OT      -0.834000       15.9994           0
     59072 WT5      3439     TIP3     H1       HT       0.417000        1.0080           0
     59073 WT5      3439     TIP3     H2       HT       0.417000        1.0080           0
     59074 WT5      3440     TIP3     OH2      OT      -0.834000       15.9994           0
     59075 WT5      3440     TIP3     H1       HT       0.417000        1.0080           0
     59076 WT5      3440     TIP3     H2       HT       0.417000        1.0080           0
     59077 WT5      3441     TIP3     OH2      OT      -0.834000       15.9994           0
     59078 WT5      3441     TIP3     H1       HT       0.417000        1.0080           0
     59079 WT5      3441     TIP3     H2       HT       0.417000        1.0080           0
     59080 WT5      3442     TIP3     OH2      OT      -0.834000       15.9994           0
     59081 WT5      3442     TIP3     H1       HT       0.417000        1.0080           0
     59082 WT5      3442     TIP3     H2       HT       0.417000        1.0080           0
     59083 WT5      3444     TIP3     OH2      OT      -0.834000       15.9994           0
     59084 WT5      3444     TIP3     H1       HT       0.417000        1.0080           0
     59085 WT5      3444     TIP3     H2       HT       0.417000        1.0080           0
     59086 WT5      3447     TIP3     OH2      OT      -0.834000       15.9994           0
     59087 WT5      3447     TIP3     H1       HT       0.417000        1.0080           0
     59088 WT5      3447     TIP3     H2       HT       0.417000        1.0080           0
     59089 WT5      3449     TIP3     OH2      OT      -0.834000       15.9994           0
     59090 WT5      3449     TIP3     H1       HT       0.417000        1.0080           0
     59091 WT5      3449     TIP3     H2       HT       0.417000        1.0080           0
     59092 WT5      3450     TIP3     OH2      OT      -0.834000       15.9994           0
     59093 WT5      3450     TIP3     H1       HT       0.417000        1.0080           0
     59094 WT5      3450     TIP3     H2       HT       0.417000        1.0080           0
     59095 WT5      3451     TIP3     OH2      OT      -0.834000       15.9994           0
     59096 WT5      3451     TIP3     H1       HT       0.417000        1.0080           0
     59097 WT5      3451     TIP3     H2       HT       0.417000        1.0080           0
     59098 WT5      3452     TIP3     OH2      OT      -0.834000       15.9994           0
     59099 WT5      3452     TIP3     H1       HT       0.417000        1.0080           0
     59100 WT5      3452     TIP3     H2       HT       0.417000        1.0080           0
     59101 WT5      3455     TIP3     OH2      OT      -0.834000       15.9994           0
     59102 WT5      3455     TIP3     H1       HT       0.417000        1.0080           0
     59103 WT5      3455     TIP3     H2       HT       0.417000        1.0080           0
     59104 WT5      3456     TIP3     OH2      OT      -0.834000       15.9994           0
     59105 WT5      3456     TIP3     H1       HT       0.417000        1.0080           0
     59106 WT5      3456     TIP3     H2       HT       0.417000        1.0080           0
     59107 WT5      3457     TIP3     OH2      OT      -0.834000       15.9994           0
     59108 WT5      3457     TIP3     H1       HT       0.417000        1.0080           0
     59109 WT5      3457     TIP3     H2       HT       0.417000        1.0080           0
     59110 WT5      3459     TIP3     OH2      OT      -0.834000       15.9994           0
     59111 WT5      3459     TIP3     H1       HT       0.417000        1.0080           0
     59112 WT5      3459     TIP3     H2       HT       0.417000        1.0080           0
     59113 WT5      3461     TIP3     OH2      OT      -0.834000       15.9994           0
     59114 WT5      3461     TIP3     H1       HT       0.417000        1.0080           0
     59115 WT5      3461     TIP3     H2       HT       0.417000        1.0080           0
     59116 WT5      3462     TIP3     OH2      OT      -0.834000       15.9994           0
     59117 WT5      3462     TIP3     H1       HT       0.417000        1.0080           0
     59118 WT5      3462     TIP3     H2       HT       0.417000        1.0080           0
     59119 WT5      3467     TIP3     OH2      OT      -0.834000       15.9994           0
     59120 WT5      3467     TIP3     H1       HT       0.417000        1.0080           0
     59121 WT5      3467     TIP3     H2       HT       0.417000        1.0080           0
     59122 WT5      3469     TIP3     OH2      OT      -0.834000       15.9994           0
     59123 WT5      3469     TIP3     H1       HT       0.417000        1.0080           0
     59124 WT5      3469     TIP3     H2       HT       0.417000        1.0080           0
     59125 WT5      3473     TIP3     OH2      OT      -0.834000       15.9994           0
     59126 WT5      3473     TIP3     H1       HT       0.417000        1.0080           0
     59127 WT5      3473     TIP3     H2       HT       0.417000        1.0080           0
     59128 WT5      3478     TIP3     OH2      OT      -0.834000       15.9994           0
     59129 WT5      3478     TIP3     H1       HT       0.417000        1.0080           0
     59130 WT5      3478     TIP3     H2       HT       0.417000        1.0080           0
     59131 WT5      3481     TIP3     OH2      OT      -0.834000       15.9994           0
     59132 WT5      3481     TIP3     H1       HT       0.417000        1.0080           0
     59133 WT5      3481     TIP3     H2       HT       0.417000        1.0080           0
     59134 WT5      3482     TIP3     OH2      OT      -0.834000       15.9994           0
     59135 WT5      3482     TIP3     H1       HT       0.417000        1.0080           0
     59136 WT5      3482     TIP3     H2       HT       0.417000        1.0080           0
     59137 WT5      3483     TIP3     OH2      OT      -0.834000       15.9994           0
     59138 WT5      3483     TIP3     H1       HT       0.417000        1.0080           0
     59139 WT5      3483     TIP3     H2       HT       0.417000        1.0080           0
     59140 WT5      3486     TIP3     OH2      OT      -0.834000       15.9994           0
     59141 WT5      3486     TIP3     H1       HT       0.417000        1.0080           0
     59142 WT5      3486     TIP3     H2       HT       0.417000        1.0080           0
     59143 WT5      3487     TIP3     OH2      OT      -0.834000       15.9994           0
     59144 WT5      3487     TIP3     H1       HT       0.417000        1.0080           0
     59145 WT5      3487     TIP3     H2       HT       0.417000        1.0080           0
     59146 WT5      3490     TIP3     OH2      OT      -0.834000       15.9994           0
     59147 WT5      3490     TIP3     H1       HT       0.417000        1.0080           0
     59148 WT5      3490     TIP3     H2       HT       0.417000        1.0080           0
     59149 WT5      3491     TIP3     OH2      OT      -0.834000       15.9994           0
     59150 WT5      3491     TIP3     H1       HT       0.417000        1.0080           0
     59151 WT5      3491     TIP3     H2       HT       0.417000        1.0080           0
     59152 WT5      3493     TIP3     OH2      OT      -0.834000       15.9994           0
     59153 WT5      3493     TIP3     H1       HT       0.417000        1.0080           0
     59154 WT5      3493     TIP3     H2       HT       0.417000        1.0080           0
     59155 WT5      3494     TIP3     OH2      OT      -0.834000       15.9994           0
     59156 WT5      3494     TIP3     H1       HT       0.417000        1.0080           0
     59157 WT5      3494     TIP3     H2       HT       0.417000        1.0080           0
     59158 WT5      3495     TIP3     OH2      OT      -0.834000       15.9994           0
     59159 WT5      3495     TIP3     H1       HT       0.417000        1.0080           0
     59160 WT5      3495     TIP3     H2       HT       0.417000        1.0080           0
     59161 WT5      3496     TIP3     OH2      OT      -0.834000       15.9994           0
     59162 WT5      3496     TIP3     H1       HT       0.417000        1.0080           0
     59163 WT5      3496     TIP3     H2       HT       0.417000        1.0080           0
     59164 WT5      3497     TIP3     OH2      OT      -0.834000       15.9994           0
     59165 WT5      3497     TIP3     H1       HT       0.417000        1.0080           0
     59166 WT5      3497     TIP3     H2       HT       0.417000        1.0080           0
     59167 WT5      3500     TIP3     OH2      OT      -0.834000       15.9994           0
     59168 WT5      3500     TIP3     H1       HT       0.417000        1.0080           0
     59169 WT5      3500     TIP3     H2       HT       0.417000        1.0080           0
     59170 WT5      3501     TIP3     OH2      OT      -0.834000       15.9994           0
     59171 WT5      3501     TIP3     H1       HT       0.417000        1.0080           0
     59172 WT5      3501     TIP3     H2       HT       0.417000        1.0080           0
     59173 WT5      3502     TIP3     OH2      OT      -0.834000       15.9994           0
     59174 WT5      3502     TIP3     H1       HT       0.417000        1.0080           0
     59175 WT5      3502     TIP3     H2       HT       0.417000        1.0080           0
     59176 WT5      3503     TIP3     OH2      OT      -0.834000       15.9994           0
     59177 WT5      3503     TIP3     H1       HT       0.417000        1.0080           0
     59178 WT5      3503     TIP3     H2       HT       0.417000        1.0080           0
     59179 WT5      3504     TIP3     OH2      OT      -0.834000       15.9994           0
     59180 WT5      3504     TIP3     H1       HT       0.417000        1.0080           0
     59181 WT5      3504     TIP3     H2       HT       0.417000        1.0080           0
     59182 WT5      3506     TIP3     OH2      OT      -0.834000       15.9994           0
     59183 WT5      3506     TIP3     H1       HT       0.417000        1.0080           0
     59184 WT5      3506     TIP3     H2       HT       0.417000        1.0080           0
     59185 WT5      3507     TIP3     OH2      OT      -0.834000       15.9994           0
     59186 WT5      3507     TIP3     H1       HT       0.417000        1.0080           0
     59187 WT5      3507     TIP3     H2       HT       0.417000        1.0080           0
     59188 WT5      3508     TIP3     OH2      OT      -0.834000       15.9994           0
     59189 WT5      3508     TIP3     H1       HT       0.417000        1.0080           0
     59190 WT5      3508     TIP3     H2       HT       0.417000        1.0080           0
     59191 WT5      3509     TIP3     OH2      OT      -0.834000       15.9994           0
     59192 WT5      3509     TIP3     H1       HT       0.417000        1.0080           0
     59193 WT5      3509     TIP3     H2       HT       0.417000        1.0080           0
     59194 WT5      3515     TIP3     OH2      OT      -0.834000       15.9994           0
     59195 WT5      3515     TIP3     H1       HT       0.417000        1.0080           0
     59196 WT5      3515     TIP3     H2       HT       0.417000        1.0080           0
     59197 WT5      3516     TIP3     OH2      OT      -0.834000       15.9994           0
     59198 WT5      3516     TIP3     H1       HT       0.417000        1.0080           0
     59199 WT5      3516     TIP3     H2       HT       0.417000        1.0080           0
     59200 WT5      3517     TIP3     OH2      OT      -0.834000       15.9994           0
     59201 WT5      3517     TIP3     H1       HT       0.417000        1.0080           0
     59202 WT5      3517     TIP3     H2       HT       0.417000        1.0080           0
     59203 WT5      3518     TIP3     OH2      OT      -0.834000       15.9994           0
     59204 WT5      3518     TIP3     H1       HT       0.417000        1.0080           0
     59205 WT5      3518     TIP3     H2       HT       0.417000        1.0080           0
     59206 WT5      3519     TIP3     OH2      OT      -0.834000       15.9994           0
     59207 WT5      3519     TIP3     H1       HT       0.417000        1.0080           0
     59208 WT5      3519     TIP3     H2       HT       0.417000        1.0080           0
     59209 WT5      3520     TIP3     OH2      OT      -0.834000       15.9994           0
     59210 WT5      3520     TIP3     H1       HT       0.417000        1.0080           0
     59211 WT5      3520     TIP3     H2       HT       0.417000        1.0080           0
     59212 WT5      3521     TIP3     OH2      OT      -0.834000       15.9994           0
     59213 WT5      3521     TIP3     H1       HT       0.417000        1.0080           0
     59214 WT5      3521     TIP3     H2       HT       0.417000        1.0080           0
     59215 WT5      3523     TIP3     OH2      OT      -0.834000       15.9994           0
     59216 WT5      3523     TIP3     H1       HT       0.417000        1.0080           0
     59217 WT5      3523     TIP3     H2       HT       0.417000        1.0080           0
     59218 WT5      3524     TIP3     OH2      OT      -0.834000       15.9994           0
     59219 WT5      3524     TIP3     H1       HT       0.417000        1.0080           0
     59220 WT5      3524     TIP3     H2       HT       0.417000        1.0080           0
     59221 WT5      3526     TIP3     OH2      OT      -0.834000       15.9994           0
     59222 WT5      3526     TIP3     H1       HT       0.417000        1.0080           0
     59223 WT5      3526     TIP3     H2       HT       0.417000        1.0080           0
     59224 WT5      3527     TIP3     OH2      OT      -0.834000       15.9994           0
     59225 WT5      3527     TIP3     H1       HT       0.417000        1.0080           0
     59226 WT5      3527     TIP3     H2       HT       0.417000        1.0080           0
     59227 WT5      3528     TIP3     OH2      OT      -0.834000       15.9994           0
     59228 WT5      3528     TIP3     H1       HT       0.417000        1.0080           0
     59229 WT5      3528     TIP3     H2       HT       0.417000        1.0080           0
     59230 WT5      3531     TIP3     OH2      OT      -0.834000       15.9994           0
     59231 WT5      3531     TIP3     H1       HT       0.417000        1.0080           0
     59232 WT5      3531     TIP3     H2       HT       0.417000        1.0080           0
     59233 WT5      3534     TIP3     OH2      OT      -0.834000       15.9994           0
     59234 WT5      3534     TIP3     H1       HT       0.417000        1.0080           0
     59235 WT5      3534     TIP3     H2       HT       0.417000        1.0080           0
     59236 WT5      3535     TIP3     OH2      OT      -0.834000       15.9994           0
     59237 WT5      3535     TIP3     H1       HT       0.417000        1.0080           0
     59238 WT5      3535     TIP3     H2       HT       0.417000        1.0080           0
     59239 WT5      3537     TIP3     OH2      OT      -0.834000       15.9994           0
     59240 WT5      3537     TIP3     H1       HT       0.417000        1.0080           0
     59241 WT5      3537     TIP3     H2       HT       0.417000        1.0080           0
     59242 WT5      3538     TIP3     OH2      OT      -0.834000       15.9994           0
     59243 WT5      3538     TIP3     H1       HT       0.417000        1.0080           0
     59244 WT5      3538     TIP3     H2       HT       0.417000        1.0080           0
     59245 WT5      3542     TIP3     OH2      OT      -0.834000       15.9994           0
     59246 WT5      3542     TIP3     H1       HT       0.417000        1.0080           0
     59247 WT5      3542     TIP3     H2       HT       0.417000        1.0080           0
     59248 WT5      3543     TIP3     OH2      OT      -0.834000       15.9994           0
     59249 WT5      3543     TIP3     H1       HT       0.417000        1.0080           0
     59250 WT5      3543     TIP3     H2       HT       0.417000        1.0080           0
     59251 WT5      3544     TIP3     OH2      OT      -0.834000       15.9994           0
     59252 WT5      3544     TIP3     H1       HT       0.417000        1.0080           0
     59253 WT5      3544     TIP3     H2       HT       0.417000        1.0080           0
     59254 WT5      3545     TIP3     OH2      OT      -0.834000       15.9994           0
     59255 WT5      3545     TIP3     H1       HT       0.417000        1.0080           0
     59256 WT5      3545     TIP3     H2       HT       0.417000        1.0080           0
     59257 WT5      3546     TIP3     OH2      OT      -0.834000       15.9994           0
     59258 WT5      3546     TIP3     H1       HT       0.417000        1.0080           0
     59259 WT5      3546     TIP3     H2       HT       0.417000        1.0080           0
     59260 WT5      3548     TIP3     OH2      OT      -0.834000       15.9994           0
     59261 WT5      3548     TIP3     H1       HT       0.417000        1.0080           0
     59262 WT5      3548     TIP3     H2       HT       0.417000        1.0080           0
     59263 WT5      3549     TIP3     OH2      OT      -0.834000       15.9994           0
     59264 WT5      3549     TIP3     H1       HT       0.417000        1.0080           0
     59265 WT5      3549     TIP3     H2       HT       0.417000        1.0080           0
     59266 WT5      3550     TIP3     OH2      OT      -0.834000       15.9994           0
     59267 WT5      3550     TIP3     H1       HT       0.417000        1.0080           0
     59268 WT5      3550     TIP3     H2       HT       0.417000        1.0080           0
     59269 WT5      3551     TIP3     OH2      OT      -0.834000       15.9994           0
     59270 WT5      3551     TIP3     H1       HT       0.417000        1.0080           0
     59271 WT5      3551     TIP3     H2       HT       0.417000        1.0080           0
     59272 WT5      3554     TIP3     OH2      OT      -0.834000       15.9994           0
     59273 WT5      3554     TIP3     H1       HT       0.417000        1.0080           0
     59274 WT5      3554     TIP3     H2       HT       0.417000        1.0080           0
     59275 WT5      3556     TIP3     OH2      OT      -0.834000       15.9994           0
     59276 WT5      3556     TIP3     H1       HT       0.417000        1.0080           0
     59277 WT5      3556     TIP3     H2       HT       0.417000        1.0080           0
     59278 WT5      3557     TIP3     OH2      OT      -0.834000       15.9994           0
     59279 WT5      3557     TIP3     H1       HT       0.417000        1.0080           0
     59280 WT5      3557     TIP3     H2       HT       0.417000        1.0080           0
     59281 WT5      3559     TIP3     OH2      OT      -0.834000       15.9994           0
     59282 WT5      3559     TIP3     H1       HT       0.417000        1.0080           0
     59283 WT5      3559     TIP3     H2       HT       0.417000        1.0080           0
     59284 WT5      3560     TIP3     OH2      OT      -0.834000       15.9994           0
     59285 WT5      3560     TIP3     H1       HT       0.417000        1.0080           0
     59286 WT5      3560     TIP3     H2       HT       0.417000        1.0080           0
     59287 WT5      3566     TIP3     OH2      OT      -0.834000       15.9994           0
     59288 WT5      3566     TIP3     H1       HT       0.417000        1.0080           0
     59289 WT5      3566     TIP3     H2       HT       0.417000        1.0080           0
     59290 WT5      3570     TIP3     OH2      OT      -0.834000       15.9994           0
     59291 WT5      3570     TIP3     H1       HT       0.417000        1.0080           0
     59292 WT5      3570     TIP3     H2       HT       0.417000        1.0080           0
     59293 WT5      3571     TIP3     OH2      OT      -0.834000       15.9994           0
     59294 WT5      3571     TIP3     H1       HT       0.417000        1.0080           0
     59295 WT5      3571     TIP3     H2       HT       0.417000        1.0080           0
     59296 WT5      3572     TIP3     OH2      OT      -0.834000       15.9994           0
     59297 WT5      3572     TIP3     H1       HT       0.417000        1.0080           0
     59298 WT5      3572     TIP3     H2       HT       0.417000        1.0080           0
     59299 WT5      3574     TIP3     OH2      OT      -0.834000       15.9994           0
     59300 WT5      3574     TIP3     H1       HT       0.417000        1.0080           0
     59301 WT5      3574     TIP3     H2       HT       0.417000        1.0080           0
     59302 WT5      3575     TIP3     OH2      OT      -0.834000       15.9994           0
     59303 WT5      3575     TIP3     H1       HT       0.417000        1.0080           0
     59304 WT5      3575     TIP3     H2       HT       0.417000        1.0080           0
     59305 WT5      3577     TIP3     OH2      OT      -0.834000       15.9994           0
     59306 WT5      3577     TIP3     H1       HT       0.417000        1.0080           0
     59307 WT5      3577     TIP3     H2       HT       0.417000        1.0080           0
     59308 WT5      3580     TIP3     OH2      OT      -0.834000       15.9994           0
     59309 WT5      3580     TIP3     H1       HT       0.417000        1.0080           0
     59310 WT5      3580     TIP3     H2       HT       0.417000        1.0080           0
     59311 WT5      3586     TIP3     OH2      OT      -0.834000       15.9994           0
     59312 WT5      3586     TIP3     H1       HT       0.417000        1.0080           0
     59313 WT5      3586     TIP3     H2       HT       0.417000        1.0080           0
     59314 WT5      3587     TIP3     OH2      OT      -0.834000       15.9994           0
     59315 WT5      3587     TIP3     H1       HT       0.417000        1.0080           0
     59316 WT5      3587     TIP3     H2       HT       0.417000        1.0080           0
     59317 WT5      3589     TIP3     OH2      OT      -0.834000       15.9994           0
     59318 WT5      3589     TIP3     H1       HT       0.417000        1.0080           0
     59319 WT5      3589     TIP3     H2       HT       0.417000        1.0080           0
     59320 WT5      3591     TIP3     OH2      OT      -0.834000       15.9994           0
     59321 WT5      3591     TIP3     H1       HT       0.417000        1.0080           0
     59322 WT5      3591     TIP3     H2       HT       0.417000        1.0080           0
     59323 WT5      3592     TIP3     OH2      OT      -0.834000       15.9994           0
     59324 WT5      3592     TIP3     H1       HT       0.417000        1.0080           0
     59325 WT5      3592     TIP3     H2       HT       0.417000        1.0080           0
     59326 WT5      3596     TIP3     OH2      OT      -0.834000       15.9994           0
     59327 WT5      3596     TIP3     H1       HT       0.417000        1.0080           0
     59328 WT5      3596     TIP3     H2       HT       0.417000        1.0080           0
     59329 WT5      3597     TIP3     OH2      OT      -0.834000       15.9994           0
     59330 WT5      3597     TIP3     H1       HT       0.417000        1.0080           0
     59331 WT5      3597     TIP3     H2       HT       0.417000        1.0080           0
     59332 WT5      3603     TIP3     OH2      OT      -0.834000       15.9994           0
     59333 WT5      3603     TIP3     H1       HT       0.417000        1.0080           0
     59334 WT5      3603     TIP3     H2       HT       0.417000        1.0080           0
     59335 WT5      3606     TIP3     OH2      OT      -0.834000       15.9994           0
     59336 WT5      3606     TIP3     H1       HT       0.417000        1.0080           0
     59337 WT5      3606     TIP3     H2       HT       0.417000        1.0080           0
     59338 WT5      3607     TIP3     OH2      OT      -0.834000       15.9994           0
     59339 WT5      3607     TIP3     H1       HT       0.417000        1.0080           0
     59340 WT5      3607     TIP3     H2       HT       0.417000        1.0080           0
     59341 WT5      3608     TIP3     OH2      OT      -0.834000       15.9994           0
     59342 WT5      3608     TIP3     H1       HT       0.417000        1.0080           0
     59343 WT5      3608     TIP3     H2       HT       0.417000        1.0080           0
     59344 WT5      3609     TIP3     OH2      OT      -0.834000       15.9994           0
     59345 WT5      3609     TIP3     H1       HT       0.417000        1.0080           0
     59346 WT5      3609     TIP3     H2       HT       0.417000        1.0080           0
     59347 WT5      3613     TIP3     OH2      OT      -0.834000       15.9994           0
     59348 WT5      3613     TIP3     H1       HT       0.417000        1.0080           0
     59349 WT5      3613     TIP3     H2       HT       0.417000        1.0080           0
     59350 WT5      3614     TIP3     OH2      OT      -0.834000       15.9994           0
     59351 WT5      3614     TIP3     H1       HT       0.417000        1.0080           0
     59352 WT5      3614     TIP3     H2       HT       0.417000        1.0080           0
     59353 WT5      3618     TIP3     OH2      OT      -0.834000       15.9994           0
     59354 WT5      3618     TIP3     H1       HT       0.417000        1.0080           0
     59355 WT5      3618     TIP3     H2       HT       0.417000        1.0080           0
     59356 WT5      3619     TIP3     OH2      OT      -0.834000       15.9994           0
     59357 WT5      3619     TIP3     H1       HT       0.417000        1.0080           0
     59358 WT5      3619     TIP3     H2       HT       0.417000        1.0080           0
     59359 WT5      3620     TIP3     OH2      OT      -0.834000       15.9994           0
     59360 WT5      3620     TIP3     H1       HT       0.417000        1.0080           0
     59361 WT5      3620     TIP3     H2       HT       0.417000        1.0080           0
     59362 WT5      3625     TIP3     OH2      OT      -0.834000       15.9994           0
     59363 WT5      3625     TIP3     H1       HT       0.417000        1.0080           0
     59364 WT5      3625     TIP3     H2       HT       0.417000        1.0080           0
     59365 WT5      3626     TIP3     OH2      OT      -0.834000       15.9994           0
     59366 WT5      3626     TIP3     H1       HT       0.417000        1.0080           0
     59367 WT5      3626     TIP3     H2       HT       0.417000        1.0080           0
     59368 WT5      3627     TIP3     OH2      OT      -0.834000       15.9994           0
     59369 WT5      3627     TIP3     H1       HT       0.417000        1.0080           0
     59370 WT5      3627     TIP3     H2       HT       0.417000        1.0080           0
     59371 WT5      3628     TIP3     OH2      OT      -0.834000       15.9994           0
     59372 WT5      3628     TIP3     H1       HT       0.417000        1.0080           0
     59373 WT5      3628     TIP3     H2       HT       0.417000        1.0080           0
     59374 WT5      3629     TIP3     OH2      OT      -0.834000       15.9994           0
     59375 WT5      3629     TIP3     H1       HT       0.417000        1.0080           0
     59376 WT5      3629     TIP3     H2       HT       0.417000        1.0080           0
     59377 WT5      3630     TIP3     OH2      OT      -0.834000       15.9994           0
     59378 WT5      3630     TIP3     H1       HT       0.417000        1.0080           0
     59379 WT5      3630     TIP3     H2       HT       0.417000        1.0080           0
     59380 WT5      3632     TIP3     OH2      OT      -0.834000       15.9994           0
     59381 WT5      3632     TIP3     H1       HT       0.417000        1.0080           0
     59382 WT5      3632     TIP3     H2       HT       0.417000        1.0080           0
     59383 WT5      3635     TIP3     OH2      OT      -0.834000       15.9994           0
     59384 WT5      3635     TIP3     H1       HT       0.417000        1.0080           0
     59385 WT5      3635     TIP3     H2       HT       0.417000        1.0080           0
     59386 WT5      3637     TIP3     OH2      OT      -0.834000       15.9994           0
     59387 WT5      3637     TIP3     H1       HT       0.417000        1.0080           0
     59388 WT5      3637     TIP3     H2       HT       0.417000        1.0080           0
     59389 WT5      3640     TIP3     OH2      OT      -0.834000       15.9994           0
     59390 WT5      3640     TIP3     H1       HT       0.417000        1.0080           0
     59391 WT5      3640     TIP3     H2       HT       0.417000        1.0080           0
     59392 WT5      3641     TIP3     OH2      OT      -0.834000       15.9994           0
     59393 WT5      3641     TIP3     H1       HT       0.417000        1.0080           0
     59394 WT5      3641     TIP3     H2       HT       0.417000        1.0080           0
     59395 WT5      3647     TIP3     OH2      OT      -0.834000       15.9994           0
     59396 WT5      3647     TIP3     H1       HT       0.417000        1.0080           0
     59397 WT5      3647     TIP3     H2       HT       0.417000        1.0080           0
     59398 WT5      3649     TIP3     OH2      OT      -0.834000       15.9994           0
     59399 WT5      3649     TIP3     H1       HT       0.417000        1.0080           0
     59400 WT5      3649     TIP3     H2       HT       0.417000        1.0080           0
     59401 WT5      3650     TIP3     OH2      OT      -0.834000       15.9994           0
     59402 WT5      3650     TIP3     H1       HT       0.417000        1.0080           0
     59403 WT5      3650     TIP3     H2       HT       0.417000        1.0080           0
     59404 WT5      3651     TIP3     OH2      OT      -0.834000       15.9994           0
     59405 WT5      3651     TIP3     H1       HT       0.417000        1.0080           0
     59406 WT5      3651     TIP3     H2       HT       0.417000        1.0080           0
     59407 WT5      3652     TIP3     OH2      OT      -0.834000       15.9994           0
     59408 WT5      3652     TIP3     H1       HT       0.417000        1.0080           0
     59409 WT5      3652     TIP3     H2       HT       0.417000        1.0080           0
     59410 WT5      3653     TIP3     OH2      OT      -0.834000       15.9994           0
     59411 WT5      3653     TIP3     H1       HT       0.417000        1.0080           0
     59412 WT5      3653     TIP3     H2       HT       0.417000        1.0080           0
     59413 WT5      3654     TIP3     OH2      OT      -0.834000       15.9994           0
     59414 WT5      3654     TIP3     H1       HT       0.417000        1.0080           0
     59415 WT5      3654     TIP3     H2       HT       0.417000        1.0080           0
     59416 WT5      3655     TIP3     OH2      OT      -0.834000       15.9994           0
     59417 WT5      3655     TIP3     H1       HT       0.417000        1.0080           0
     59418 WT5      3655     TIP3     H2       HT       0.417000        1.0080           0
     59419 WT5      3656     TIP3     OH2      OT      -0.834000       15.9994           0
     59420 WT5      3656     TIP3     H1       HT       0.417000        1.0080           0
     59421 WT5      3656     TIP3     H2       HT       0.417000        1.0080           0
     59422 WT5      3659     TIP3     OH2      OT      -0.834000       15.9994           0
     59423 WT5      3659     TIP3     H1       HT       0.417000        1.0080           0
     59424 WT5      3659     TIP3     H2       HT       0.417000        1.0080           0
     59425 WT5      3660     TIP3     OH2      OT      -0.834000       15.9994           0
     59426 WT5      3660     TIP3     H1       HT       0.417000        1.0080           0
     59427 WT5      3660     TIP3     H2       HT       0.417000        1.0080           0
     59428 WT5      3661     TIP3     OH2      OT      -0.834000       15.9994           0
     59429 WT5      3661     TIP3     H1       HT       0.417000        1.0080           0
     59430 WT5      3661     TIP3     H2       HT       0.417000        1.0080           0
     59431 WT5      3662     TIP3     OH2      OT      -0.834000       15.9994           0
     59432 WT5      3662     TIP3     H1       HT       0.417000        1.0080           0
     59433 WT5      3662     TIP3     H2       HT       0.417000        1.0080           0
     59434 WT5      3665     TIP3     OH2      OT      -0.834000       15.9994           0
     59435 WT5      3665     TIP3     H1       HT       0.417000        1.0080           0
     59436 WT5      3665     TIP3     H2       HT       0.417000        1.0080           0
     59437 WT5      3666     TIP3     OH2      OT      -0.834000       15.9994           0
     59438 WT5      3666     TIP3     H1       HT       0.417000        1.0080           0
     59439 WT5      3666     TIP3     H2       HT       0.417000        1.0080           0
     59440 WT5      3671     TIP3     OH2      OT      -0.834000       15.9994           0
     59441 WT5      3671     TIP3     H1       HT       0.417000        1.0080           0
     59442 WT5      3671     TIP3     H2       HT       0.417000        1.0080           0
     59443 WT5      3673     TIP3     OH2      OT      -0.834000       15.9994           0
     59444 WT5      3673     TIP3     H1       HT       0.417000        1.0080           0
     59445 WT5      3673     TIP3     H2       HT       0.417000        1.0080           0
     59446 WT5      3677     TIP3     OH2      OT      -0.834000       15.9994           0
     59447 WT5      3677     TIP3     H1       HT       0.417000        1.0080           0
     59448 WT5      3677     TIP3     H2       HT       0.417000        1.0080           0
     59449 WT5      3683     TIP3     OH2      OT      -0.834000       15.9994           0
     59450 WT5      3683     TIP3     H1       HT       0.417000        1.0080           0
     59451 WT5      3683     TIP3     H2       HT       0.417000        1.0080           0
     59452 WT5      3685     TIP3     OH2      OT      -0.834000       15.9994           0
     59453 WT5      3685     TIP3     H1       HT       0.417000        1.0080           0
     59454 WT5      3685     TIP3     H2       HT       0.417000        1.0080           0
     59455 WT5      3687     TIP3     OH2      OT      -0.834000       15.9994           0
     59456 WT5      3687     TIP3     H1       HT       0.417000        1.0080           0
     59457 WT5      3687     TIP3     H2       HT       0.417000        1.0080           0
     59458 WT5      3689     TIP3     OH2      OT      -0.834000       15.9994           0
     59459 WT5      3689     TIP3     H1       HT       0.417000        1.0080           0
     59460 WT5      3689     TIP3     H2       HT       0.417000        1.0080           0
     59461 WT5      3690     TIP3     OH2      OT      -0.834000       15.9994           0
     59462 WT5      3690     TIP3     H1       HT       0.417000        1.0080           0
     59463 WT5      3690     TIP3     H2       HT       0.417000        1.0080           0
     59464 WT5      3695     TIP3     OH2      OT      -0.834000       15.9994           0
     59465 WT5      3695     TIP3     H1       HT       0.417000        1.0080           0
     59466 WT5      3695     TIP3     H2       HT       0.417000        1.0080           0
     59467 WT5      3696     TIP3     OH2      OT      -0.834000       15.9994           0
     59468 WT5      3696     TIP3     H1       HT       0.417000        1.0080           0
     59469 WT5      3696     TIP3     H2       HT       0.417000        1.0080           0
     59470 WT5      3697     TIP3     OH2      OT      -0.834000       15.9994           0
     59471 WT5      3697     TIP3     H1       HT       0.417000        1.0080           0
     59472 WT5      3697     TIP3     H2       HT       0.417000        1.0080           0
     59473 WT5      3698     TIP3     OH2      OT      -0.834000       15.9994           0
     59474 WT5      3698     TIP3     H1       HT       0.417000        1.0080           0
     59475 WT5      3698     TIP3     H2       HT       0.417000        1.0080           0
     59476 WT5      3702     TIP3     OH2      OT      -0.834000       15.9994           0
     59477 WT5      3702     TIP3     H1       HT       0.417000        1.0080           0
     59478 WT5      3702     TIP3     H2       HT       0.417000        1.0080           0
     59479 WT5      3703     TIP3     OH2      OT      -0.834000       15.9994           0
     59480 WT5      3703     TIP3     H1       HT       0.417000        1.0080           0
     59481 WT5      3703     TIP3     H2       HT       0.417000        1.0080           0
     59482 WT5      3704     TIP3     OH2      OT      -0.834000       15.9994           0
     59483 WT5      3704     TIP3     H1       HT       0.417000        1.0080           0
     59484 WT5      3704     TIP3     H2       HT       0.417000        1.0080           0
     59485 WT5      3706     TIP3     OH2      OT      -0.834000       15.9994           0
     59486 WT5      3706     TIP3     H1       HT       0.417000        1.0080           0
     59487 WT5      3706     TIP3     H2       HT       0.417000        1.0080           0
     59488 WT5      3708     TIP3     OH2      OT      -0.834000       15.9994           0
     59489 WT5      3708     TIP3     H1       HT       0.417000        1.0080           0
     59490 WT5      3708     TIP3     H2       HT       0.417000        1.0080           0
     59491 WT5      3713     TIP3     OH2      OT      -0.834000       15.9994           0
     59492 WT5      3713     TIP3     H1       HT       0.417000        1.0080           0
     59493 WT5      3713     TIP3     H2       HT       0.417000        1.0080           0
     59494 WT5      3714     TIP3     OH2      OT      -0.834000       15.9994           0
     59495 WT5      3714     TIP3     H1       HT       0.417000        1.0080           0
     59496 WT5      3714     TIP3     H2       HT       0.417000        1.0080           0
     59497 WT5      3717     TIP3     OH2      OT      -0.834000       15.9994           0
     59498 WT5      3717     TIP3     H1       HT       0.417000        1.0080           0
     59499 WT5      3717     TIP3     H2       HT       0.417000        1.0080           0
     59500 WT5      3718     TIP3     OH2      OT      -0.834000       15.9994           0
     59501 WT5      3718     TIP3     H1       HT       0.417000        1.0080           0
     59502 WT5      3718     TIP3     H2       HT       0.417000        1.0080           0
     59503 WT5      3720     TIP3     OH2      OT      -0.834000       15.9994           0
     59504 WT5      3720     TIP3     H1       HT       0.417000        1.0080           0
     59505 WT5      3720     TIP3     H2       HT       0.417000        1.0080           0
     59506 WT5      3723     TIP3     OH2      OT      -0.834000       15.9994           0
     59507 WT5      3723     TIP3     H1       HT       0.417000        1.0080           0
     59508 WT5      3723     TIP3     H2       HT       0.417000        1.0080           0
     59509 WT5      3728     TIP3     OH2      OT      -0.834000       15.9994           0
     59510 WT5      3728     TIP3     H1       HT       0.417000        1.0080           0
     59511 WT5      3728     TIP3     H2       HT       0.417000        1.0080           0
     59512 WT5      3731     TIP3     OH2      OT      -0.834000       15.9994           0
     59513 WT5      3731     TIP3     H1       HT       0.417000        1.0080           0
     59514 WT5      3731     TIP3     H2       HT       0.417000        1.0080           0
     59515 WT5      3733     TIP3     OH2      OT      -0.834000       15.9994           0
     59516 WT5      3733     TIP3     H1       HT       0.417000        1.0080           0
     59517 WT5      3733     TIP3     H2       HT       0.417000        1.0080           0
     59518 WT5      3734     TIP3     OH2      OT      -0.834000       15.9994           0
     59519 WT5      3734     TIP3     H1       HT       0.417000        1.0080           0
     59520 WT5      3734     TIP3     H2       HT       0.417000        1.0080           0
     59521 WT5      3736     TIP3     OH2      OT      -0.834000       15.9994           0
     59522 WT5      3736     TIP3     H1       HT       0.417000        1.0080           0
     59523 WT5      3736     TIP3     H2       HT       0.417000        1.0080           0
     59524 WT5      3737     TIP3     OH2      OT      -0.834000       15.9994           0
     59525 WT5      3737     TIP3     H1       HT       0.417000        1.0080           0
     59526 WT5      3737     TIP3     H2       HT       0.417000        1.0080           0
     59527 WT5      3740     TIP3     OH2      OT      -0.834000       15.9994           0
     59528 WT5      3740     TIP3     H1       HT       0.417000        1.0080           0
     59529 WT5      3740     TIP3     H2       HT       0.417000        1.0080           0
     59530 WT5      3745     TIP3     OH2      OT      -0.834000       15.9994           0
     59531 WT5      3745     TIP3     H1       HT       0.417000        1.0080           0
     59532 WT5      3745     TIP3     H2       HT       0.417000        1.0080           0
     59533 WT5      3746     TIP3     OH2      OT      -0.834000       15.9994           0
     59534 WT5      3746     TIP3     H1       HT       0.417000        1.0080           0
     59535 WT5      3746     TIP3     H2       HT       0.417000        1.0080           0
     59536 WT5      3750     TIP3     OH2      OT      -0.834000       15.9994           0
     59537 WT5      3750     TIP3     H1       HT       0.417000        1.0080           0
     59538 WT5      3750     TIP3     H2       HT       0.417000        1.0080           0
     59539 WT5      3752     TIP3     OH2      OT      -0.834000       15.9994           0
     59540 WT5      3752     TIP3     H1       HT       0.417000        1.0080           0
     59541 WT5      3752     TIP3     H2       HT       0.417000        1.0080           0
     59542 WT5      3753     TIP3     OH2      OT      -0.834000       15.9994           0
     59543 WT5      3753     TIP3     H1       HT       0.417000        1.0080           0
     59544 WT5      3753     TIP3     H2       HT       0.417000        1.0080           0
     59545 WT5      3760     TIP3     OH2      OT      -0.834000       15.9994           0
     59546 WT5      3760     TIP3     H1       HT       0.417000        1.0080           0
     59547 WT5      3760     TIP3     H2       HT       0.417000        1.0080           0
     59548 WT5      3761     TIP3     OH2      OT      -0.834000       15.9994           0
     59549 WT5      3761     TIP3     H1       HT       0.417000        1.0080           0
     59550 WT5      3761     TIP3     H2       HT       0.417000        1.0080           0
     59551 WT5      3764     TIP3     OH2      OT      -0.834000       15.9994           0
     59552 WT5      3764     TIP3     H1       HT       0.417000        1.0080           0
     59553 WT5      3764     TIP3     H2       HT       0.417000        1.0080           0
     59554 WT5      3768     TIP3     OH2      OT      -0.834000       15.9994           0
     59555 WT5      3768     TIP3     H1       HT       0.417000        1.0080           0
     59556 WT5      3768     TIP3     H2       HT       0.417000        1.0080           0
     59557 WT5      3769     TIP3     OH2      OT      -0.834000       15.9994           0
     59558 WT5      3769     TIP3     H1       HT       0.417000        1.0080           0
     59559 WT5      3769     TIP3     H2       HT       0.417000        1.0080           0
     59560 WT5      3773     TIP3     OH2      OT      -0.834000       15.9994           0
     59561 WT5      3773     TIP3     H1       HT       0.417000        1.0080           0
     59562 WT5      3773     TIP3     H2       HT       0.417000        1.0080           0
     59563 WT5      3776     TIP3     OH2      OT      -0.834000       15.9994           0
     59564 WT5      3776     TIP3     H1       HT       0.417000        1.0080           0
     59565 WT5      3776     TIP3     H2       HT       0.417000        1.0080           0
     59566 WT5      3781     TIP3     OH2      OT      -0.834000       15.9994           0
     59567 WT5      3781     TIP3     H1       HT       0.417000        1.0080           0
     59568 WT5      3781     TIP3     H2       HT       0.417000        1.0080           0
     59569 WT5      3785     TIP3     OH2      OT      -0.834000       15.9994           0
     59570 WT5      3785     TIP3     H1       HT       0.417000        1.0080           0
     59571 WT5      3785     TIP3     H2       HT       0.417000        1.0080           0
     59572 WT5      3787     TIP3     OH2      OT      -0.834000       15.9994           0
     59573 WT5      3787     TIP3     H1       HT       0.417000        1.0080           0
     59574 WT5      3787     TIP3     H2       HT       0.417000        1.0080           0
     59575 WT5      3788     TIP3     OH2      OT      -0.834000       15.9994           0
     59576 WT5      3788     TIP3     H1       HT       0.417000        1.0080           0
     59577 WT5      3788     TIP3     H2       HT       0.417000        1.0080           0
     59578 WT5      3790     TIP3     OH2      OT      -0.834000       15.9994           0
     59579 WT5      3790     TIP3     H1       HT       0.417000        1.0080           0
     59580 WT5      3790     TIP3     H2       HT       0.417000        1.0080           0
     59581 WT5      3795     TIP3     OH2      OT      -0.834000       15.9994           0
     59582 WT5      3795     TIP3     H1       HT       0.417000        1.0080           0
     59583 WT5      3795     TIP3     H2       HT       0.417000        1.0080           0
     59584 WT5      3796     TIP3     OH2      OT      -0.834000       15.9994           0
     59585 WT5      3796     TIP3     H1       HT       0.417000        1.0080           0
     59586 WT5      3796     TIP3     H2       HT       0.417000        1.0080           0
     59587 WT5      3797     TIP3     OH2      OT      -0.834000       15.9994           0
     59588 WT5      3797     TIP3     H1       HT       0.417000        1.0080           0
     59589 WT5      3797     TIP3     H2       HT       0.417000        1.0080           0
     59590 WT5      3799     TIP3     OH2      OT      -0.834000       15.9994           0
     59591 WT5      3799     TIP3     H1       HT       0.417000        1.0080           0
     59592 WT5      3799     TIP3     H2       HT       0.417000        1.0080           0
     59593 WT5      3800     TIP3     OH2      OT      -0.834000       15.9994           0
     59594 WT5      3800     TIP3     H1       HT       0.417000        1.0080           0
     59595 WT5      3800     TIP3     H2       HT       0.417000        1.0080           0
     59596 WT5      3803     TIP3     OH2      OT      -0.834000       15.9994           0
     59597 WT5      3803     TIP3     H1       HT       0.417000        1.0080           0
     59598 WT5      3803     TIP3     H2       HT       0.417000        1.0080           0
     59599 WT5      3811     TIP3     OH2      OT      -0.834000       15.9994           0
     59600 WT5      3811     TIP3     H1       HT       0.417000        1.0080           0
     59601 WT5      3811     TIP3     H2       HT       0.417000        1.0080           0
     59602 WT5      3813     TIP3     OH2      OT      -0.834000       15.9994           0
     59603 WT5      3813     TIP3     H1       HT       0.417000        1.0080           0
     59604 WT5      3813     TIP3     H2       HT       0.417000        1.0080           0
     59605 WT5      3814     TIP3     OH2      OT      -0.834000       15.9994           0
     59606 WT5      3814     TIP3     H1       HT       0.417000        1.0080           0
     59607 WT5      3814     TIP3     H2       HT       0.417000        1.0080           0
     59608 WT5      3815     TIP3     OH2      OT      -0.834000       15.9994           0
     59609 WT5      3815     TIP3     H1       HT       0.417000        1.0080           0
     59610 WT5      3815     TIP3     H2       HT       0.417000        1.0080           0
     59611 WT5      3817     TIP3     OH2      OT      -0.834000       15.9994           0
     59612 WT5      3817     TIP3     H1       HT       0.417000        1.0080           0
     59613 WT5      3817     TIP3     H2       HT       0.417000        1.0080           0
     59614 WT5      3830     TIP3     OH2      OT      -0.834000       15.9994           0
     59615 WT5      3830     TIP3     H1       HT       0.417000        1.0080           0
     59616 WT5      3830     TIP3     H2       HT       0.417000        1.0080           0
     59617 WT5      3832     TIP3     OH2      OT      -0.834000       15.9994           0
     59618 WT5      3832     TIP3     H1       HT       0.417000        1.0080           0
     59619 WT5      3832     TIP3     H2       HT       0.417000        1.0080           0
     59620 WT5      3834     TIP3     OH2      OT      -0.834000       15.9994           0
     59621 WT5      3834     TIP3     H1       HT       0.417000        1.0080           0
     59622 WT5      3834     TIP3     H2       HT       0.417000        1.0080           0
     59623 WT5      3836     TIP3     OH2      OT      -0.834000       15.9994           0
     59624 WT5      3836     TIP3     H1       HT       0.417000        1.0080           0
     59625 WT5      3836     TIP3     H2       HT       0.417000        1.0080           0
     59626 WT5      3841     TIP3     OH2      OT      -0.834000       15.9994           0
     59627 WT5      3841     TIP3     H1       HT       0.417000        1.0080           0
     59628 WT5      3841     TIP3     H2       HT       0.417000        1.0080           0
     59629 WT5      3845     TIP3     OH2      OT      -0.834000       15.9994           0
     59630 WT5      3845     TIP3     H1       HT       0.417000        1.0080           0
     59631 WT5      3845     TIP3     H2       HT       0.417000        1.0080           0
     59632 WT5      3847     TIP3     OH2      OT      -0.834000       15.9994           0
     59633 WT5      3847     TIP3     H1       HT       0.417000        1.0080           0
     59634 WT5      3847     TIP3     H2       HT       0.417000        1.0080           0
     59635 WT5      3848     TIP3     OH2      OT      -0.834000       15.9994           0
     59636 WT5      3848     TIP3     H1       HT       0.417000        1.0080           0
     59637 WT5      3848     TIP3     H2       HT       0.417000        1.0080           0
     59638 WT5      3849     TIP3     OH2      OT      -0.834000       15.9994           0
     59639 WT5      3849     TIP3     H1       HT       0.417000        1.0080           0
     59640 WT5      3849     TIP3     H2       HT       0.417000        1.0080           0
     59641 WT5      3851     TIP3     OH2      OT      -0.834000       15.9994           0
     59642 WT5      3851     TIP3     H1       HT       0.417000        1.0080           0
     59643 WT5      3851     TIP3     H2       HT       0.417000        1.0080           0
     59644 WT5      3852     TIP3     OH2      OT      -0.834000       15.9994           0
     59645 WT5      3852     TIP3     H1       HT       0.417000        1.0080           0
     59646 WT5      3852     TIP3     H2       HT       0.417000        1.0080           0
     59647 WT5      3854     TIP3     OH2      OT      -0.834000       15.9994           0
     59648 WT5      3854     TIP3     H1       HT       0.417000        1.0080           0
     59649 WT5      3854     TIP3     H2       HT       0.417000        1.0080           0
     59650 WT5      3857     TIP3     OH2      OT      -0.834000       15.9994           0
     59651 WT5      3857     TIP3     H1       HT       0.417000        1.0080           0
     59652 WT5      3857     TIP3     H2       HT       0.417000        1.0080           0
     59653 WT5      3860     TIP3     OH2      OT      -0.834000       15.9994           0
     59654 WT5      3860     TIP3     H1       HT       0.417000        1.0080           0
     59655 WT5      3860     TIP3     H2       HT       0.417000        1.0080           0
     59656 WT5      3861     TIP3     OH2      OT      -0.834000       15.9994           0
     59657 WT5      3861     TIP3     H1       HT       0.417000        1.0080           0
     59658 WT5      3861     TIP3     H2       HT       0.417000        1.0080           0
     59659 WT5      3862     TIP3     OH2      OT      -0.834000       15.9994           0
     59660 WT5      3862     TIP3     H1       HT       0.417000        1.0080           0
     59661 WT5      3862     TIP3     H2       HT       0.417000        1.0080           0
     59662 WT5      3863     TIP3     OH2      OT      -0.834000       15.9994           0
     59663 WT5      3863     TIP3     H1       HT       0.417000        1.0080           0
     59664 WT5      3863     TIP3     H2       HT       0.417000        1.0080           0
     59665 WT5      3864     TIP3     OH2      OT      -0.834000       15.9994           0
     59666 WT5      3864     TIP3     H1       HT       0.417000        1.0080           0
     59667 WT5      3864     TIP3     H2       HT       0.417000        1.0080           0
     59668 WT5      3868     TIP3     OH2      OT      -0.834000       15.9994           0
     59669 WT5      3868     TIP3     H1       HT       0.417000        1.0080           0
     59670 WT5      3868     TIP3     H2       HT       0.417000        1.0080           0
     59671 WT5      3869     TIP3     OH2      OT      -0.834000       15.9994           0
     59672 WT5      3869     TIP3     H1       HT       0.417000        1.0080           0
     59673 WT5      3869     TIP3     H2       HT       0.417000        1.0080           0
     59674 WT5      3870     TIP3     OH2      OT      -0.834000       15.9994           0
     59675 WT5      3870     TIP3     H1       HT       0.417000        1.0080           0
     59676 WT5      3870     TIP3     H2       HT       0.417000        1.0080           0
     59677 WT5      3871     TIP3     OH2      OT      -0.834000       15.9994           0
     59678 WT5      3871     TIP3     H1       HT       0.417000        1.0080           0
     59679 WT5      3871     TIP3     H2       HT       0.417000        1.0080           0
     59680 WT5      3872     TIP3     OH2      OT      -0.834000       15.9994           0
     59681 WT5      3872     TIP3     H1       HT       0.417000        1.0080           0
     59682 WT5      3872     TIP3     H2       HT       0.417000        1.0080           0
     59683 WT5      3874     TIP3     OH2      OT      -0.834000       15.9994           0
     59684 WT5      3874     TIP3     H1       HT       0.417000        1.0080           0
     59685 WT5      3874     TIP3     H2       HT       0.417000        1.0080           0
     59686 WT5      3877     TIP3     OH2      OT      -0.834000       15.9994           0
     59687 WT5      3877     TIP3     H1       HT       0.417000        1.0080           0
     59688 WT5      3877     TIP3     H2       HT       0.417000        1.0080           0
     59689 WT5      3879     TIP3     OH2      OT      -0.834000       15.9994           0
     59690 WT5      3879     TIP3     H1       HT       0.417000        1.0080           0
     59691 WT5      3879     TIP3     H2       HT       0.417000        1.0080           0
     59692 WT5      3881     TIP3     OH2      OT      -0.834000       15.9994           0
     59693 WT5      3881     TIP3     H1       HT       0.417000        1.0080           0
     59694 WT5      3881     TIP3     H2       HT       0.417000        1.0080           0
     59695 WT5      3882     TIP3     OH2      OT      -0.834000       15.9994           0
     59696 WT5      3882     TIP3     H1       HT       0.417000        1.0080           0
     59697 WT5      3882     TIP3     H2       HT       0.417000        1.0080           0
     59698 WT5      3883     TIP3     OH2      OT      -0.834000       15.9994           0
     59699 WT5      3883     TIP3     H1       HT       0.417000        1.0080           0
     59700 WT5      3883     TIP3     H2       HT       0.417000        1.0080           0
     59701 WT5      3893     TIP3     OH2      OT      -0.834000       15.9994           0
     59702 WT5      3893     TIP3     H1       HT       0.417000        1.0080           0
     59703 WT5      3893     TIP3     H2       HT       0.417000        1.0080           0
     59704 WT5      3895     TIP3     OH2      OT      -0.834000       15.9994           0
     59705 WT5      3895     TIP3     H1       HT       0.417000        1.0080           0
     59706 WT5      3895     TIP3     H2       HT       0.417000        1.0080           0
     59707 WT5      3898     TIP3     OH2      OT      -0.834000       15.9994           0
     59708 WT5      3898     TIP3     H1       HT       0.417000        1.0080           0
     59709 WT5      3898     TIP3     H2       HT       0.417000        1.0080           0
     59710 WT5      3900     TIP3     OH2      OT      -0.834000       15.9994           0
     59711 WT5      3900     TIP3     H1       HT       0.417000        1.0080           0
     59712 WT5      3900     TIP3     H2       HT       0.417000        1.0080           0
     59713 WT5      3903     TIP3     OH2      OT      -0.834000       15.9994           0
     59714 WT5      3903     TIP3     H1       HT       0.417000        1.0080           0
     59715 WT5      3903     TIP3     H2       HT       0.417000        1.0080           0
     59716 WT5      3905     TIP3     OH2      OT      -0.834000       15.9994           0
     59717 WT5      3905     TIP3     H1       HT       0.417000        1.0080           0
     59718 WT5      3905     TIP3     H2       HT       0.417000        1.0080           0
     59719 WT5      3906     TIP3     OH2      OT      -0.834000       15.9994           0
     59720 WT5      3906     TIP3     H1       HT       0.417000        1.0080           0
     59721 WT5      3906     TIP3     H2       HT       0.417000        1.0080           0
     59722 WT5      3907     TIP3     OH2      OT      -0.834000       15.9994           0
     59723 WT5      3907     TIP3     H1       HT       0.417000        1.0080           0
     59724 WT5      3907     TIP3     H2       HT       0.417000        1.0080           0
     59725 WT5      3908     TIP3     OH2      OT      -0.834000       15.9994           0
     59726 WT5      3908     TIP3     H1       HT       0.417000        1.0080           0
     59727 WT5      3908     TIP3     H2       HT       0.417000        1.0080           0
     59728 WT5      3913     TIP3     OH2      OT      -0.834000       15.9994           0
     59729 WT5      3913     TIP3     H1       HT       0.417000        1.0080           0
     59730 WT5      3913     TIP3     H2       HT       0.417000        1.0080           0
     59731 WT5      3914     TIP3     OH2      OT      -0.834000       15.9994           0
     59732 WT5      3914     TIP3     H1       HT       0.417000        1.0080           0
     59733 WT5      3914     TIP3     H2       HT       0.417000        1.0080           0
     59734 WT5      3916     TIP3     OH2      OT      -0.834000       15.9994           0
     59735 WT5      3916     TIP3     H1       HT       0.417000        1.0080           0
     59736 WT5      3916     TIP3     H2       HT       0.417000        1.0080           0
     59737 WT5      3919     TIP3     OH2      OT      -0.834000       15.9994           0
     59738 WT5      3919     TIP3     H1       HT       0.417000        1.0080           0
     59739 WT5      3919     TIP3     H2       HT       0.417000        1.0080           0
     59740 WT5      3921     TIP3     OH2      OT      -0.834000       15.9994           0
     59741 WT5      3921     TIP3     H1       HT       0.417000        1.0080           0
     59742 WT5      3921     TIP3     H2       HT       0.417000        1.0080           0
     59743 WT5      3922     TIP3     OH2      OT      -0.834000       15.9994           0
     59744 WT5      3922     TIP3     H1       HT       0.417000        1.0080           0
     59745 WT5      3922     TIP3     H2       HT       0.417000        1.0080           0
     59746 WT5      3923     TIP3     OH2      OT      -0.834000       15.9994           0
     59747 WT5      3923     TIP3     H1       HT       0.417000        1.0080           0
     59748 WT5      3923     TIP3     H2       HT       0.417000        1.0080           0
     59749 WT5      3924     TIP3     OH2      OT      -0.834000       15.9994           0
     59750 WT5      3924     TIP3     H1       HT       0.417000        1.0080           0
     59751 WT5      3924     TIP3     H2       HT       0.417000        1.0080           0
     59752 WT5      3925     TIP3     OH2      OT      -0.834000       15.9994           0
     59753 WT5      3925     TIP3     H1       HT       0.417000        1.0080           0
     59754 WT5      3925     TIP3     H2       HT       0.417000        1.0080           0
     59755 WT5      3926     TIP3     OH2      OT      -0.834000       15.9994           0
     59756 WT5      3926     TIP3     H1       HT       0.417000        1.0080           0
     59757 WT5      3926     TIP3     H2       HT       0.417000        1.0080           0
     59758 WT5      3928     TIP3     OH2      OT      -0.834000       15.9994           0
     59759 WT5      3928     TIP3     H1       HT       0.417000        1.0080           0
     59760 WT5      3928     TIP3     H2       HT       0.417000        1.0080           0
     59761 WT5      3930     TIP3     OH2      OT      -0.834000       15.9994           0
     59762 WT5      3930     TIP3     H1       HT       0.417000        1.0080           0
     59763 WT5      3930     TIP3     H2       HT       0.417000        1.0080           0
     59764 WT5      3933     TIP3     OH2      OT      -0.834000       15.9994           0
     59765 WT5      3933     TIP3     H1       HT       0.417000        1.0080           0
     59766 WT5      3933     TIP3     H2       HT       0.417000        1.0080           0
     59767 WT5      3934     TIP3     OH2      OT      -0.834000       15.9994           0
     59768 WT5      3934     TIP3     H1       HT       0.417000        1.0080           0
     59769 WT5      3934     TIP3     H2       HT       0.417000        1.0080           0
     59770 WT5      3935     TIP3     OH2      OT      -0.834000       15.9994           0
     59771 WT5      3935     TIP3     H1       HT       0.417000        1.0080           0
     59772 WT5      3935     TIP3     H2       HT       0.417000        1.0080           0
     59773 WT5      3936     TIP3     OH2      OT      -0.834000       15.9994           0
     59774 WT5      3936     TIP3     H1       HT       0.417000        1.0080           0
     59775 WT5      3936     TIP3     H2       HT       0.417000        1.0080           0
     59776 WT5      3939     TIP3     OH2      OT      -0.834000       15.9994           0
     59777 WT5      3939     TIP3     H1       HT       0.417000        1.0080           0
     59778 WT5      3939     TIP3     H2       HT       0.417000        1.0080           0
     59779 WT5      3941     TIP3     OH2      OT      -0.834000       15.9994           0
     59780 WT5      3941     TIP3     H1       HT       0.417000        1.0080           0
     59781 WT5      3941     TIP3     H2       HT       0.417000        1.0080           0
     59782 WT5      3942     TIP3     OH2      OT      -0.834000       15.9994           0
     59783 WT5      3942     TIP3     H1       HT       0.417000        1.0080           0
     59784 WT5      3942     TIP3     H2       HT       0.417000        1.0080           0
     59785 WT5      3943     TIP3     OH2      OT      -0.834000       15.9994           0
     59786 WT5      3943     TIP3     H1       HT       0.417000        1.0080           0
     59787 WT5      3943     TIP3     H2       HT       0.417000        1.0080           0
     59788 WT5      3944     TIP3     OH2      OT      -0.834000       15.9994           0
     59789 WT5      3944     TIP3     H1       HT       0.417000        1.0080           0
     59790 WT5      3944     TIP3     H2       HT       0.417000        1.0080           0
     59791 WT5      3945     TIP3     OH2      OT      -0.834000       15.9994           0
     59792 WT5      3945     TIP3     H1       HT       0.417000        1.0080           0
     59793 WT5      3945     TIP3     H2       HT       0.417000        1.0080           0
     59794 WT5      3946     TIP3     OH2      OT      -0.834000       15.9994           0
     59795 WT5      3946     TIP3     H1       HT       0.417000        1.0080           0
     59796 WT5      3946     TIP3     H2       HT       0.417000        1.0080           0
     59797 WT5      3948     TIP3     OH2      OT      -0.834000       15.9994           0
     59798 WT5      3948     TIP3     H1       HT       0.417000        1.0080           0
     59799 WT5      3948     TIP3     H2       HT       0.417000        1.0080           0
     59800 WT5      3950     TIP3     OH2      OT      -0.834000       15.9994           0
     59801 WT5      3950     TIP3     H1       HT       0.417000        1.0080           0
     59802 WT5      3950     TIP3     H2       HT       0.417000        1.0080           0
     59803 WT5      3951     TIP3     OH2      OT      -0.834000       15.9994           0
     59804 WT5      3951     TIP3     H1       HT       0.417000        1.0080           0
     59805 WT5      3951     TIP3     H2       HT       0.417000        1.0080           0
     59806 WT5      3955     TIP3     OH2      OT      -0.834000       15.9994           0
     59807 WT5      3955     TIP3     H1       HT       0.417000        1.0080           0
     59808 WT5      3955     TIP3     H2       HT       0.417000        1.0080           0
     59809 WT5      3956     TIP3     OH2      OT      -0.834000       15.9994           0
     59810 WT5      3956     TIP3     H1       HT       0.417000        1.0080           0
     59811 WT5      3956     TIP3     H2       HT       0.417000        1.0080           0
     59812 WT5      3958     TIP3     OH2      OT      -0.834000       15.9994           0
     59813 WT5      3958     TIP3     H1       HT       0.417000        1.0080           0
     59814 WT5      3958     TIP3     H2       HT       0.417000        1.0080           0
     59815 WT5      3960     TIP3     OH2      OT      -0.834000       15.9994           0
     59816 WT5      3960     TIP3     H1       HT       0.417000        1.0080           0
     59817 WT5      3960     TIP3     H2       HT       0.417000        1.0080           0
     59818 WT5      3963     TIP3     OH2      OT      -0.834000       15.9994           0
     59819 WT5      3963     TIP3     H1       HT       0.417000        1.0080           0
     59820 WT5      3963     TIP3     H2       HT       0.417000        1.0080           0
     59821 WT5      3964     TIP3     OH2      OT      -0.834000       15.9994           0
     59822 WT5      3964     TIP3     H1       HT       0.417000        1.0080           0
     59823 WT5      3964     TIP3     H2       HT       0.417000        1.0080           0
     59824 WT5      3965     TIP3     OH2      OT      -0.834000       15.9994           0
     59825 WT5      3965     TIP3     H1       HT       0.417000        1.0080           0
     59826 WT5      3965     TIP3     H2       HT       0.417000        1.0080           0
     59827 WT5      3966     TIP3     OH2      OT      -0.834000       15.9994           0
     59828 WT5      3966     TIP3     H1       HT       0.417000        1.0080           0
     59829 WT5      3966     TIP3     H2       HT       0.417000        1.0080           0
     59830 WT5      3968     TIP3     OH2      OT      -0.834000       15.9994           0
     59831 WT5      3968     TIP3     H1       HT       0.417000        1.0080           0
     59832 WT5      3968     TIP3     H2       HT       0.417000        1.0080           0
     59833 WT5      3972     TIP3     OH2      OT      -0.834000       15.9994           0
     59834 WT5      3972     TIP3     H1       HT       0.417000        1.0080           0
     59835 WT5      3972     TIP3     H2       HT       0.417000        1.0080           0
     59836 WT5      3976     TIP3     OH2      OT      -0.834000       15.9994           0
     59837 WT5      3976     TIP3     H1       HT       0.417000        1.0080           0
     59838 WT5      3976     TIP3     H2       HT       0.417000        1.0080           0
     59839 WT5      3977     TIP3     OH2      OT      -0.834000       15.9994           0
     59840 WT5      3977     TIP3     H1       HT       0.417000        1.0080           0
     59841 WT5      3977     TIP3     H2       HT       0.417000        1.0080           0
     59842 WT5      3985     TIP3     OH2      OT      -0.834000       15.9994           0
     59843 WT5      3985     TIP3     H1       HT       0.417000        1.0080           0
     59844 WT5      3985     TIP3     H2       HT       0.417000        1.0080           0
     59845 WT5      3987     TIP3     OH2      OT      -0.834000       15.9994           0
     59846 WT5      3987     TIP3     H1       HT       0.417000        1.0080           0
     59847 WT5      3987     TIP3     H2       HT       0.417000        1.0080           0
     59848 WT5      3988     TIP3     OH2      OT      -0.834000       15.9994           0
     59849 WT5      3988     TIP3     H1       HT       0.417000        1.0080           0
     59850 WT5      3988     TIP3     H2       HT       0.417000        1.0080           0
     59851 WT5      3989     TIP3     OH2      OT      -0.834000       15.9994           0
     59852 WT5      3989     TIP3     H1       HT       0.417000        1.0080           0
     59853 WT5      3989     TIP3     H2       HT       0.417000        1.0080           0
     59854 WT5      3990     TIP3     OH2      OT      -0.834000       15.9994           0
     59855 WT5      3990     TIP3     H1       HT       0.417000        1.0080           0
     59856 WT5      3990     TIP3     H2       HT       0.417000        1.0080           0
     59857 WT5      3991     TIP3     OH2      OT      -0.834000       15.9994           0
     59858 WT5      3991     TIP3     H1       HT       0.417000        1.0080           0
     59859 WT5      3991     TIP3     H2       HT       0.417000        1.0080           0
     59860 WT5      3995     TIP3     OH2      OT      -0.834000       15.9994           0
     59861 WT5      3995     TIP3     H1       HT       0.417000        1.0080           0
     59862 WT5      3995     TIP3     H2       HT       0.417000        1.0080           0
     59863 WT5      3996     TIP3     OH2      OT      -0.834000       15.9994           0
     59864 WT5      3996     TIP3     H1       HT       0.417000        1.0080           0
     59865 WT5      3996     TIP3     H2       HT       0.417000        1.0080           0
     59866 WT5      4009     TIP3     OH2      OT      -0.834000       15.9994           0
     59867 WT5      4009     TIP3     H1       HT       0.417000        1.0080           0
     59868 WT5      4009     TIP3     H2       HT       0.417000        1.0080           0
     59869 WT5      4011     TIP3     OH2      OT      -0.834000       15.9994           0
     59870 WT5      4011     TIP3     H1       HT       0.417000        1.0080           0
     59871 WT5      4011     TIP3     H2       HT       0.417000        1.0080           0
     59872 WT5      4012     TIP3     OH2      OT      -0.834000       15.9994           0
     59873 WT5      4012     TIP3     H1       HT       0.417000        1.0080           0
     59874 WT5      4012     TIP3     H2       HT       0.417000        1.0080           0
     59875 WT5      4013     TIP3     OH2      OT      -0.834000       15.9994           0
     59876 WT5      4013     TIP3     H1       HT       0.417000        1.0080           0
     59877 WT5      4013     TIP3     H2       HT       0.417000        1.0080           0
     59878 WT5      4017     TIP3     OH2      OT      -0.834000       15.9994           0
     59879 WT5      4017     TIP3     H1       HT       0.417000        1.0080           0
     59880 WT5      4017     TIP3     H2       HT       0.417000        1.0080           0
     59881 WT5      4019     TIP3     OH2      OT      -0.834000       15.9994           0
     59882 WT5      4019     TIP3     H1       HT       0.417000        1.0080           0
     59883 WT5      4019     TIP3     H2       HT       0.417000        1.0080           0
     59884 WT5      4020     TIP3     OH2      OT      -0.834000       15.9994           0
     59885 WT5      4020     TIP3     H1       HT       0.417000        1.0080           0
     59886 WT5      4020     TIP3     H2       HT       0.417000        1.0080           0
     59887 WT5      4024     TIP3     OH2      OT      -0.834000       15.9994           0
     59888 WT5      4024     TIP3     H1       HT       0.417000        1.0080           0
     59889 WT5      4024     TIP3     H2       HT       0.417000        1.0080           0
     59890 WT5      4027     TIP3     OH2      OT      -0.834000       15.9994           0
     59891 WT5      4027     TIP3     H1       HT       0.417000        1.0080           0
     59892 WT5      4027     TIP3     H2       HT       0.417000        1.0080           0
     59893 WT5      4028     TIP3     OH2      OT      -0.834000       15.9994           0
     59894 WT5      4028     TIP3     H1       HT       0.417000        1.0080           0
     59895 WT5      4028     TIP3     H2       HT       0.417000        1.0080           0
     59896 WT5      4033     TIP3     OH2      OT      -0.834000       15.9994           0
     59897 WT5      4033     TIP3     H1       HT       0.417000        1.0080           0
     59898 WT5      4033     TIP3     H2       HT       0.417000        1.0080           0
     59899 WT5      4036     TIP3     OH2      OT      -0.834000       15.9994           0
     59900 WT5      4036     TIP3     H1       HT       0.417000        1.0080           0
     59901 WT5      4036     TIP3     H2       HT       0.417000        1.0080           0
     59902 WT5      4037     TIP3     OH2      OT      -0.834000       15.9994           0
     59903 WT5      4037     TIP3     H1       HT       0.417000        1.0080           0
     59904 WT5      4037     TIP3     H2       HT       0.417000        1.0080           0
     59905 WT5      4038     TIP3     OH2      OT      -0.834000       15.9994           0
     59906 WT5      4038     TIP3     H1       HT       0.417000        1.0080           0
     59907 WT5      4038     TIP3     H2       HT       0.417000        1.0080           0
     59908 WT5      4039     TIP3     OH2      OT      -0.834000       15.9994           0
     59909 WT5      4039     TIP3     H1       HT       0.417000        1.0080           0
     59910 WT5      4039     TIP3     H2       HT       0.417000        1.0080           0
     59911 WT5      4044     TIP3     OH2      OT      -0.834000       15.9994           0
     59912 WT5      4044     TIP3     H1       HT       0.417000        1.0080           0
     59913 WT5      4044     TIP3     H2       HT       0.417000        1.0080           0
     59914 WT5      4045     TIP3     OH2      OT      -0.834000       15.9994           0
     59915 WT5      4045     TIP3     H1       HT       0.417000        1.0080           0
     59916 WT5      4045     TIP3     H2       HT       0.417000        1.0080           0
     59917 WT5      4059     TIP3     OH2      OT      -0.834000       15.9994           0
     59918 WT5      4059     TIP3     H1       HT       0.417000        1.0080           0
     59919 WT5      4059     TIP3     H2       HT       0.417000        1.0080           0
     59920 WT5      4065     TIP3     OH2      OT      -0.834000       15.9994           0
     59921 WT5      4065     TIP3     H1       HT       0.417000        1.0080           0
     59922 WT5      4065     TIP3     H2       HT       0.417000        1.0080           0
     59923 WT5      4067     TIP3     OH2      OT      -0.834000       15.9994           0
     59924 WT5      4067     TIP3     H1       HT       0.417000        1.0080           0
     59925 WT5      4067     TIP3     H2       HT       0.417000        1.0080           0
     59926 WT5      4074     TIP3     OH2      OT      -0.834000       15.9994           0
     59927 WT5      4074     TIP3     H1       HT       0.417000        1.0080           0
     59928 WT5      4074     TIP3     H2       HT       0.417000        1.0080           0
     59929 WT5      4077     TIP3     OH2      OT      -0.834000       15.9994           0
     59930 WT5      4077     TIP3     H1       HT       0.417000        1.0080           0
     59931 WT5      4077     TIP3     H2       HT       0.417000        1.0080           0
     59932 WT5      4079     TIP3     OH2      OT      -0.834000       15.9994           0
     59933 WT5      4079     TIP3     H1       HT       0.417000        1.0080           0
     59934 WT5      4079     TIP3     H2       HT       0.417000        1.0080           0
     59935 WT5      4081     TIP3     OH2      OT      -0.834000       15.9994           0
     59936 WT5      4081     TIP3     H1       HT       0.417000        1.0080           0
     59937 WT5      4081     TIP3     H2       HT       0.417000        1.0080           0
     59938 WT5      4085     TIP3     OH2      OT      -0.834000       15.9994           0
     59939 WT5      4085     TIP3     H1       HT       0.417000        1.0080           0
     59940 WT5      4085     TIP3     H2       HT       0.417000        1.0080           0
     59941 WT5      4087     TIP3     OH2      OT      -0.834000       15.9994           0
     59942 WT5      4087     TIP3     H1       HT       0.417000        1.0080           0
     59943 WT5      4087     TIP3     H2       HT       0.417000        1.0080           0
     59944 WT5      4097     TIP3     OH2      OT      -0.834000       15.9994           0
     59945 WT5      4097     TIP3     H1       HT       0.417000        1.0080           0
     59946 WT5      4097     TIP3     H2       HT       0.417000        1.0080           0
     59947 WT5      4102     TIP3     OH2      OT      -0.834000       15.9994           0
     59948 WT5      4102     TIP3     H1       HT       0.417000        1.0080           0
     59949 WT5      4102     TIP3     H2       HT       0.417000        1.0080           0
     59950 WT5      4104     TIP3     OH2      OT      -0.834000       15.9994           0
     59951 WT5      4104     TIP3     H1       HT       0.417000        1.0080           0
     59952 WT5      4104     TIP3     H2       HT       0.417000        1.0080           0
     59953 WT5      4114     TIP3     OH2      OT      -0.834000       15.9994           0
     59954 WT5      4114     TIP3     H1       HT       0.417000        1.0080           0
     59955 WT5      4114     TIP3     H2       HT       0.417000        1.0080           0
     59956 WT5      4117     TIP3     OH2      OT      -0.834000       15.9994           0
     59957 WT5      4117     TIP3     H1       HT       0.417000        1.0080           0
     59958 WT5      4117     TIP3     H2       HT       0.417000        1.0080           0
     59959 WT5      4118     TIP3     OH2      OT      -0.834000       15.9994           0
     59960 WT5      4118     TIP3     H1       HT       0.417000        1.0080           0
     59961 WT5      4118     TIP3     H2       HT       0.417000        1.0080           0
     59962 WT5      4133     TIP3     OH2      OT      -0.834000       15.9994           0
     59963 WT5      4133     TIP3     H1       HT       0.417000        1.0080           0
     59964 WT5      4133     TIP3     H2       HT       0.417000        1.0080           0
     59965 WT5      4134     TIP3     OH2      OT      -0.834000       15.9994           0
     59966 WT5      4134     TIP3     H1       HT       0.417000        1.0080           0
     59967 WT5      4134     TIP3     H2       HT       0.417000        1.0080           0
     59968 WT5      4137     TIP3     OH2      OT      -0.834000       15.9994           0
     59969 WT5      4137     TIP3     H1       HT       0.417000        1.0080           0
     59970 WT5      4137     TIP3     H2       HT       0.417000        1.0080           0
     59971 WT5      4141     TIP3     OH2      OT      -0.834000       15.9994           0
     59972 WT5      4141     TIP3     H1       HT       0.417000        1.0080           0
     59973 WT5      4141     TIP3     H2       HT       0.417000        1.0080           0
     59974 WT5      4150     TIP3     OH2      OT      -0.834000       15.9994           0
     59975 WT5      4150     TIP3     H1       HT       0.417000        1.0080           0
     59976 WT5      4150     TIP3     H2       HT       0.417000        1.0080           0
     59977 WT5      4152     TIP3     OH2      OT      -0.834000       15.9994           0
     59978 WT5      4152     TIP3     H1       HT       0.417000        1.0080           0
     59979 WT5      4152     TIP3     H2       HT       0.417000        1.0080           0
     59980 WT5      4153     TIP3     OH2      OT      -0.834000       15.9994           0
     59981 WT5      4153     TIP3     H1       HT       0.417000        1.0080           0
     59982 WT5      4153     TIP3     H2       HT       0.417000        1.0080           0
     59983 WT5      4159     TIP3     OH2      OT      -0.834000       15.9994           0
     59984 WT5      4159     TIP3     H1       HT       0.417000        1.0080           0
     59985 WT5      4159     TIP3     H2       HT       0.417000        1.0080           0
     59986 WT5      4160     TIP3     OH2      OT      -0.834000       15.9994           0
     59987 WT5      4160     TIP3     H1       HT       0.417000        1.0080           0
     59988 WT5      4160     TIP3     H2       HT       0.417000        1.0080           0
     59989 WT5      4162     TIP3     OH2      OT      -0.834000       15.9994           0
     59990 WT5      4162     TIP3     H1       HT       0.417000        1.0080           0
     59991 WT5      4162     TIP3     H2       HT       0.417000        1.0080           0
     59992 WT5      4163     TIP3     OH2      OT      -0.834000       15.9994           0
     59993 WT5      4163     TIP3     H1       HT       0.417000        1.0080           0
     59994 WT5      4163     TIP3     H2       HT       0.417000        1.0080           0
     59995 WT5      4172     TIP3     OH2      OT      -0.834000       15.9994           0
     59996 WT5      4172     TIP3     H1       HT       0.417000        1.0080           0
     59997 WT5      4172     TIP3     H2       HT       0.417000        1.0080           0
     59998 WT5      4173     TIP3     OH2      OT      -0.834000       15.9994           0
     59999 WT5      4173     TIP3     H1       HT       0.417000        1.0080           0
     60000 WT5      4173     TIP3     H2       HT       0.417000        1.0080           0
     60001 WT5      4174     TIP3     OH2      OT      -0.834000       15.9994           0
     60002 WT5      4174     TIP3     H1       HT       0.417000        1.0080           0
     60003 WT5      4174     TIP3     H2       HT       0.417000        1.0080           0
     60004 WT5      4175     TIP3     OH2      OT      -0.834000       15.9994           0
     60005 WT5      4175     TIP3     H1       HT       0.417000        1.0080           0
     60006 WT5      4175     TIP3     H2       HT       0.417000        1.0080           0
     60007 WT5      4176     TIP3     OH2      OT      -0.834000       15.9994           0
     60008 WT5      4176     TIP3     H1       HT       0.417000        1.0080           0
     60009 WT5      4176     TIP3     H2       HT       0.417000        1.0080           0
     60010 WT5      4184     TIP3     OH2      OT      -0.834000       15.9994           0
     60011 WT5      4184     TIP3     H1       HT       0.417000        1.0080           0
     60012 WT5      4184     TIP3     H2       HT       0.417000        1.0080           0
     60013 WT5      4185     TIP3     OH2      OT      -0.834000       15.9994           0
     60014 WT5      4185     TIP3     H1       HT       0.417000        1.0080           0
     60015 WT5      4185     TIP3     H2       HT       0.417000        1.0080           0
     60016 WT5      4187     TIP3     OH2      OT      -0.834000       15.9994           0
     60017 WT5      4187     TIP3     H1       HT       0.417000        1.0080           0
     60018 WT5      4187     TIP3     H2       HT       0.417000        1.0080           0
     60019 WT5      4188     TIP3     OH2      OT      -0.834000       15.9994           0
     60020 WT5      4188     TIP3     H1       HT       0.417000        1.0080           0
     60021 WT5      4188     TIP3     H2       HT       0.417000        1.0080           0
     60022 WT5      4195     TIP3     OH2      OT      -0.834000       15.9994           0
     60023 WT5      4195     TIP3     H1       HT       0.417000        1.0080           0
     60024 WT5      4195     TIP3     H2       HT       0.417000        1.0080           0
     60025 WT5      4204     TIP3     OH2      OT      -0.834000       15.9994           0
     60026 WT5      4204     TIP3     H1       HT       0.417000        1.0080           0
     60027 WT5      4204     TIP3     H2       HT       0.417000        1.0080           0
     60028 WT5      4219     TIP3     OH2      OT      -0.834000       15.9994           0
     60029 WT5      4219     TIP3     H1       HT       0.417000        1.0080           0
     60030 WT5      4219     TIP3     H2       HT       0.417000        1.0080           0
     60031 WT5      4227     TIP3     OH2      OT      -0.834000       15.9994           0
     60032 WT5      4227     TIP3     H1       HT       0.417000        1.0080           0
     60033 WT5      4227     TIP3     H2       HT       0.417000        1.0080           0
     60034 WT5      4232     TIP3     OH2      OT      -0.834000       15.9994           0
     60035 WT5      4232     TIP3     H1       HT       0.417000        1.0080           0
     60036 WT5      4232     TIP3     H2       HT       0.417000        1.0080           0
     60037 WT5      4234     TIP3     OH2      OT      -0.834000       15.9994           0
     60038 WT5      4234     TIP3     H1       HT       0.417000        1.0080           0
     60039 WT5      4234     TIP3     H2       HT       0.417000        1.0080           0
     60040 WT5      4236     TIP3     OH2      OT      -0.834000       15.9994           0
     60041 WT5      4236     TIP3     H1       HT       0.417000        1.0080           0
     60042 WT5      4236     TIP3     H2       HT       0.417000        1.0080           0
     60043 WT5      4241     TIP3     OH2      OT      -0.834000       15.9994           0
     60044 WT5      4241     TIP3     H1       HT       0.417000        1.0080           0
     60045 WT5      4241     TIP3     H2       HT       0.417000        1.0080           0
     60046 WT5      4243     TIP3     OH2      OT      -0.834000       15.9994           0
     60047 WT5      4243     TIP3     H1       HT       0.417000        1.0080           0
     60048 WT5      4243     TIP3     H2       HT       0.417000        1.0080           0
     60049 WT5      4263     TIP3     OH2      OT      -0.834000       15.9994           0
     60050 WT5      4263     TIP3     H1       HT       0.417000        1.0080           0
     60051 WT5      4263     TIP3     H2       HT       0.417000        1.0080           0
     60052 WT5      4267     TIP3     OH2      OT      -0.834000       15.9994           0
     60053 WT5      4267     TIP3     H1       HT       0.417000        1.0080           0
     60054 WT5      4267     TIP3     H2       HT       0.417000        1.0080           0
     60055 WT5      4268     TIP3     OH2      OT      -0.834000       15.9994           0
     60056 WT5      4268     TIP3     H1       HT       0.417000        1.0080           0
     60057 WT5      4268     TIP3     H2       HT       0.417000        1.0080           0
     60058 WT5      4276     TIP3     OH2      OT      -0.834000       15.9994           0
     60059 WT5      4276     TIP3     H1       HT       0.417000        1.0080           0
     60060 WT5      4276     TIP3     H2       HT       0.417000        1.0080           0
     60061 WT5      4278     TIP3     OH2      OT      -0.834000       15.9994           0
     60062 WT5      4278     TIP3     H1       HT       0.417000        1.0080           0
     60063 WT5      4278     TIP3     H2       HT       0.417000        1.0080           0
     60064 WT5      4281     TIP3     OH2      OT      -0.834000       15.9994           0
     60065 WT5      4281     TIP3     H1       HT       0.417000        1.0080           0
     60066 WT5      4281     TIP3     H2       HT       0.417000        1.0080           0
     60067 WT5      4287     TIP3     OH2      OT      -0.834000       15.9994           0
     60068 WT5      4287     TIP3     H1       HT       0.417000        1.0080           0
     60069 WT5      4287     TIP3     H2       HT       0.417000        1.0080           0
     60070 WT5      4290     TIP3     OH2      OT      -0.834000       15.9994           0
     60071 WT5      4290     TIP3     H1       HT       0.417000        1.0080           0
     60072 WT5      4290     TIP3     H2       HT       0.417000        1.0080           0
     60073 WT5      4294     TIP3     OH2      OT      -0.834000       15.9994           0
     60074 WT5      4294     TIP3     H1       HT       0.417000        1.0080           0
     60075 WT5      4294     TIP3     H2       HT       0.417000        1.0080           0
     60076 WT5      4296     TIP3     OH2      OT      -0.834000       15.9994           0
     60077 WT5      4296     TIP3     H1       HT       0.417000        1.0080           0
     60078 WT5      4296     TIP3     H2       HT       0.417000        1.0080           0
     60079 WT5      4301     TIP3     OH2      OT      -0.834000       15.9994           0
     60080 WT5      4301     TIP3     H1       HT       0.417000        1.0080           0
     60081 WT5      4301     TIP3     H2       HT       0.417000        1.0080           0
     60082 WT5      4302     TIP3     OH2      OT      -0.834000       15.9994           0
     60083 WT5      4302     TIP3     H1       HT       0.417000        1.0080           0
     60084 WT5      4302     TIP3     H2       HT       0.417000        1.0080           0
     60085 WT5      4303     TIP3     OH2      OT      -0.834000       15.9994           0
     60086 WT5      4303     TIP3     H1       HT       0.417000        1.0080           0
     60087 WT5      4303     TIP3     H2       HT       0.417000        1.0080           0
     60088 WT5      4314     TIP3     OH2      OT      -0.834000       15.9994           0
     60089 WT5      4314     TIP3     H1       HT       0.417000        1.0080           0
     60090 WT5      4314     TIP3     H2       HT       0.417000        1.0080           0
     60091 WT5      4315     TIP3     OH2      OT      -0.834000       15.9994           0
     60092 WT5      4315     TIP3     H1       HT       0.417000        1.0080           0
     60093 WT5      4315     TIP3     H2       HT       0.417000        1.0080           0
     60094 WT5      4317     TIP3     OH2      OT      -0.834000       15.9994           0
     60095 WT5      4317     TIP3     H1       HT       0.417000        1.0080           0
     60096 WT5      4317     TIP3     H2       HT       0.417000        1.0080           0
     60097 WT5      4318     TIP3     OH2      OT      -0.834000       15.9994           0
     60098 WT5      4318     TIP3     H1       HT       0.417000        1.0080           0
     60099 WT5      4318     TIP3     H2       HT       0.417000        1.0080           0
     60100 WT5      4319     TIP3     OH2      OT      -0.834000       15.9994           0
     60101 WT5      4319     TIP3     H1       HT       0.417000        1.0080           0
     60102 WT5      4319     TIP3     H2       HT       0.417000        1.0080           0
     60103 WT5      4320     TIP3     OH2      OT      -0.834000       15.9994           0
     60104 WT5      4320     TIP3     H1       HT       0.417000        1.0080           0
     60105 WT5      4320     TIP3     H2       HT       0.417000        1.0080           0
     60106 WT5      4322     TIP3     OH2      OT      -0.834000       15.9994           0
     60107 WT5      4322     TIP3     H1       HT       0.417000        1.0080           0
     60108 WT5      4322     TIP3     H2       HT       0.417000        1.0080           0
     60109 WT5      4323     TIP3     OH2      OT      -0.834000       15.9994           0
     60110 WT5      4323     TIP3     H1       HT       0.417000        1.0080           0
     60111 WT5      4323     TIP3     H2       HT       0.417000        1.0080           0
     60112 WT5      4324     TIP3     OH2      OT      -0.834000       15.9994           0
     60113 WT5      4324     TIP3     H1       HT       0.417000        1.0080           0
     60114 WT5      4324     TIP3     H2       HT       0.417000        1.0080           0
     60115 WT5      4325     TIP3     OH2      OT      -0.834000       15.9994           0
     60116 WT5      4325     TIP3     H1       HT       0.417000        1.0080           0
     60117 WT5      4325     TIP3     H2       HT       0.417000        1.0080           0
     60118 WT5      4329     TIP3     OH2      OT      -0.834000       15.9994           0
     60119 WT5      4329     TIP3     H1       HT       0.417000        1.0080           0
     60120 WT5      4329     TIP3     H2       HT       0.417000        1.0080           0
     60121 WT5      4330     TIP3     OH2      OT      -0.834000       15.9994           0
     60122 WT5      4330     TIP3     H1       HT       0.417000        1.0080           0
     60123 WT5      4330     TIP3     H2       HT       0.417000        1.0080           0
     60124 WT5      4333     TIP3     OH2      OT      -0.834000       15.9994           0
     60125 WT5      4333     TIP3     H1       HT       0.417000        1.0080           0
     60126 WT5      4333     TIP3     H2       HT       0.417000        1.0080           0
     60127 WT5      4334     TIP3     OH2      OT      -0.834000       15.9994           0
     60128 WT5      4334     TIP3     H1       HT       0.417000        1.0080           0
     60129 WT5      4334     TIP3     H2       HT       0.417000        1.0080           0
     60130 WT5      4335     TIP3     OH2      OT      -0.834000       15.9994           0
     60131 WT5      4335     TIP3     H1       HT       0.417000        1.0080           0
     60132 WT5      4335     TIP3     H2       HT       0.417000        1.0080           0
     60133 WT5      4336     TIP3     OH2      OT      -0.834000       15.9994           0
     60134 WT5      4336     TIP3     H1       HT       0.417000        1.0080           0
     60135 WT5      4336     TIP3     H2       HT       0.417000        1.0080           0
     60136 WT5      4340     TIP3     OH2      OT      -0.834000       15.9994           0
     60137 WT5      4340     TIP3     H1       HT       0.417000        1.0080           0
     60138 WT5      4340     TIP3     H2       HT       0.417000        1.0080           0
     60139 WT5      4341     TIP3     OH2      OT      -0.834000       15.9994           0
     60140 WT5      4341     TIP3     H1       HT       0.417000        1.0080           0
     60141 WT5      4341     TIP3     H2       HT       0.417000        1.0080           0
     60142 WT5      4342     TIP3     OH2      OT      -0.834000       15.9994           0
     60143 WT5      4342     TIP3     H1       HT       0.417000        1.0080           0
     60144 WT5      4342     TIP3     H2       HT       0.417000        1.0080           0
     60145 WT5      4344     TIP3     OH2      OT      -0.834000       15.9994           0
     60146 WT5      4344     TIP3     H1       HT       0.417000        1.0080           0
     60147 WT5      4344     TIP3     H2       HT       0.417000        1.0080           0
     60148 WT5      4346     TIP3     OH2      OT      -0.834000       15.9994           0
     60149 WT5      4346     TIP3     H1       HT       0.417000        1.0080           0
     60150 WT5      4346     TIP3     H2       HT       0.417000        1.0080           0
     60151 WT5      4347     TIP3     OH2      OT      -0.834000       15.9994           0
     60152 WT5      4347     TIP3     H1       HT       0.417000        1.0080           0
     60153 WT5      4347     TIP3     H2       HT       0.417000        1.0080           0
     60154 WT5      4350     TIP3     OH2      OT      -0.834000       15.9994           0
     60155 WT5      4350     TIP3     H1       HT       0.417000        1.0080           0
     60156 WT5      4350     TIP3     H2       HT       0.417000        1.0080           0
     60157 WT5      4351     TIP3     OH2      OT      -0.834000       15.9994           0
     60158 WT5      4351     TIP3     H1       HT       0.417000        1.0080           0
     60159 WT5      4351     TIP3     H2       HT       0.417000        1.0080           0
     60160 WT5      4352     TIP3     OH2      OT      -0.834000       15.9994           0
     60161 WT5      4352     TIP3     H1       HT       0.417000        1.0080           0
     60162 WT5      4352     TIP3     H2       HT       0.417000        1.0080           0
     60163 WT5      4355     TIP3     OH2      OT      -0.834000       15.9994           0
     60164 WT5      4355     TIP3     H1       HT       0.417000        1.0080           0
     60165 WT5      4355     TIP3     H2       HT       0.417000        1.0080           0
     60166 WT5      4356     TIP3     OH2      OT      -0.834000       15.9994           0
     60167 WT5      4356     TIP3     H1       HT       0.417000        1.0080           0
     60168 WT5      4356     TIP3     H2       HT       0.417000        1.0080           0
     60169 WT5      4357     TIP3     OH2      OT      -0.834000       15.9994           0
     60170 WT5      4357     TIP3     H1       HT       0.417000        1.0080           0
     60171 WT5      4357     TIP3     H2       HT       0.417000        1.0080           0
     60172 WT5      4360     TIP3     OH2      OT      -0.834000       15.9994           0
     60173 WT5      4360     TIP3     H1       HT       0.417000        1.0080           0
     60174 WT5      4360     TIP3     H2       HT       0.417000        1.0080           0
     60175 WT5      4363     TIP3     OH2      OT      -0.834000       15.9994           0
     60176 WT5      4363     TIP3     H1       HT       0.417000        1.0080           0
     60177 WT5      4363     TIP3     H2       HT       0.417000        1.0080           0
     60178 WT5      4364     TIP3     OH2      OT      -0.834000       15.9994           0
     60179 WT5      4364     TIP3     H1       HT       0.417000        1.0080           0
     60180 WT5      4364     TIP3     H2       HT       0.417000        1.0080           0
     60181 WT5      4366     TIP3     OH2      OT      -0.834000       15.9994           0
     60182 WT5      4366     TIP3     H1       HT       0.417000        1.0080           0
     60183 WT5      4366     TIP3     H2       HT       0.417000        1.0080           0
     60184 WT5      4370     TIP3     OH2      OT      -0.834000       15.9994           0
     60185 WT5      4370     TIP3     H1       HT       0.417000        1.0080           0
     60186 WT5      4370     TIP3     H2       HT       0.417000        1.0080           0
     60187 WT5      4377     TIP3     OH2      OT      -0.834000       15.9994           0
     60188 WT5      4377     TIP3     H1       HT       0.417000        1.0080           0
     60189 WT5      4377     TIP3     H2       HT       0.417000        1.0080           0
     60190 WT5      4378     TIP3     OH2      OT      -0.834000       15.9994           0
     60191 WT5      4378     TIP3     H1       HT       0.417000        1.0080           0
     60192 WT5      4378     TIP3     H2       HT       0.417000        1.0080           0
     60193 WT5      4379     TIP3     OH2      OT      -0.834000       15.9994           0
     60194 WT5      4379     TIP3     H1       HT       0.417000        1.0080           0
     60195 WT5      4379     TIP3     H2       HT       0.417000        1.0080           0
     60196 WT5      4380     TIP3     OH2      OT      -0.834000       15.9994           0
     60197 WT5      4380     TIP3     H1       HT       0.417000        1.0080           0
     60198 WT5      4380     TIP3     H2       HT       0.417000        1.0080           0
     60199 WT5      4382     TIP3     OH2      OT      -0.834000       15.9994           0
     60200 WT5      4382     TIP3     H1       HT       0.417000        1.0080           0
     60201 WT5      4382     TIP3     H2       HT       0.417000        1.0080           0
     60202 WT5      4383     TIP3     OH2      OT      -0.834000       15.9994           0
     60203 WT5      4383     TIP3     H1       HT       0.417000        1.0080           0
     60204 WT5      4383     TIP3     H2       HT       0.417000        1.0080           0
     60205 WT5      4384     TIP3     OH2      OT      -0.834000       15.9994           0
     60206 WT5      4384     TIP3     H1       HT       0.417000        1.0080           0
     60207 WT5      4384     TIP3     H2       HT       0.417000        1.0080           0
     60208 WT5      4387     TIP3     OH2      OT      -0.834000       15.9994           0
     60209 WT5      4387     TIP3     H1       HT       0.417000        1.0080           0
     60210 WT5      4387     TIP3     H2       HT       0.417000        1.0080           0
     60211 WT5      4388     TIP3     OH2      OT      -0.834000       15.9994           0
     60212 WT5      4388     TIP3     H1       HT       0.417000        1.0080           0
     60213 WT5      4388     TIP3     H2       HT       0.417000        1.0080           0
     60214 WT5      4391     TIP3     OH2      OT      -0.834000       15.9994           0
     60215 WT5      4391     TIP3     H1       HT       0.417000        1.0080           0
     60216 WT5      4391     TIP3     H2       HT       0.417000        1.0080           0
     60217 WT5      4392     TIP3     OH2      OT      -0.834000       15.9994           0
     60218 WT5      4392     TIP3     H1       HT       0.417000        1.0080           0
     60219 WT5      4392     TIP3     H2       HT       0.417000        1.0080           0
     60220 WT5      4394     TIP3     OH2      OT      -0.834000       15.9994           0
     60221 WT5      4394     TIP3     H1       HT       0.417000        1.0080           0
     60222 WT5      4394     TIP3     H2       HT       0.417000        1.0080           0
     60223 WT5      4395     TIP3     OH2      OT      -0.834000       15.9994           0
     60224 WT5      4395     TIP3     H1       HT       0.417000        1.0080           0
     60225 WT5      4395     TIP3     H2       HT       0.417000        1.0080           0
     60226 WT5      4398     TIP3     OH2      OT      -0.834000       15.9994           0
     60227 WT5      4398     TIP3     H1       HT       0.417000        1.0080           0
     60228 WT5      4398     TIP3     H2       HT       0.417000        1.0080           0
     60229 WT5      4401     TIP3     OH2      OT      -0.834000       15.9994           0
     60230 WT5      4401     TIP3     H1       HT       0.417000        1.0080           0
     60231 WT5      4401     TIP3     H2       HT       0.417000        1.0080           0
     60232 WT5      4402     TIP3     OH2      OT      -0.834000       15.9994           0
     60233 WT5      4402     TIP3     H1       HT       0.417000        1.0080           0
     60234 WT5      4402     TIP3     H2       HT       0.417000        1.0080           0
     60235 WT5      4403     TIP3     OH2      OT      -0.834000       15.9994           0
     60236 WT5      4403     TIP3     H1       HT       0.417000        1.0080           0
     60237 WT5      4403     TIP3     H2       HT       0.417000        1.0080           0
     60238 WT5      4405     TIP3     OH2      OT      -0.834000       15.9994           0
     60239 WT5      4405     TIP3     H1       HT       0.417000        1.0080           0
     60240 WT5      4405     TIP3     H2       HT       0.417000        1.0080           0
     60241 WT5      4407     TIP3     OH2      OT      -0.834000       15.9994           0
     60242 WT5      4407     TIP3     H1       HT       0.417000        1.0080           0
     60243 WT5      4407     TIP3     H2       HT       0.417000        1.0080           0
     60244 WT5      4408     TIP3     OH2      OT      -0.834000       15.9994           0
     60245 WT5      4408     TIP3     H1       HT       0.417000        1.0080           0
     60246 WT5      4408     TIP3     H2       HT       0.417000        1.0080           0
     60247 WT5      4409     TIP3     OH2      OT      -0.834000       15.9994           0
     60248 WT5      4409     TIP3     H1       HT       0.417000        1.0080           0
     60249 WT5      4409     TIP3     H2       HT       0.417000        1.0080           0
     60250 WT5      4425     TIP3     OH2      OT      -0.834000       15.9994           0
     60251 WT5      4425     TIP3     H1       HT       0.417000        1.0080           0
     60252 WT5      4425     TIP3     H2       HT       0.417000        1.0080           0
     60253 WT5      4428     TIP3     OH2      OT      -0.834000       15.9994           0
     60254 WT5      4428     TIP3     H1       HT       0.417000        1.0080           0
     60255 WT5      4428     TIP3     H2       HT       0.417000        1.0080           0
     60256 WT5      4429     TIP3     OH2      OT      -0.834000       15.9994           0
     60257 WT5      4429     TIP3     H1       HT       0.417000        1.0080           0
     60258 WT5      4429     TIP3     H2       HT       0.417000        1.0080           0
     60259 WT5      4458     TIP3     OH2      OT      -0.834000       15.9994           0
     60260 WT5      4458     TIP3     H1       HT       0.417000        1.0080           0
     60261 WT5      4458     TIP3     H2       HT       0.417000        1.0080           0
     60262 WT5      4469     TIP3     OH2      OT      -0.834000       15.9994           0
     60263 WT5      4469     TIP3     H1       HT       0.417000        1.0080           0
     60264 WT5      4469     TIP3     H2       HT       0.417000        1.0080           0
     60265 WT5      4471     TIP3     OH2      OT      -0.834000       15.9994           0
     60266 WT5      4471     TIP3     H1       HT       0.417000        1.0080           0
     60267 WT5      4471     TIP3     H2       HT       0.417000        1.0080           0
     60268 WT5      4480     TIP3     OH2      OT      -0.834000       15.9994           0
     60269 WT5      4480     TIP3     H1       HT       0.417000        1.0080           0
     60270 WT5      4480     TIP3     H2       HT       0.417000        1.0080           0
     60271 WT5      4484     TIP3     OH2      OT      -0.834000       15.9994           0
     60272 WT5      4484     TIP3     H1       HT       0.417000        1.0080           0
     60273 WT5      4484     TIP3     H2       HT       0.417000        1.0080           0
     60274 WT5      4485     TIP3     OH2      OT      -0.834000       15.9994           0
     60275 WT5      4485     TIP3     H1       HT       0.417000        1.0080           0
     60276 WT5      4485     TIP3     H2       HT       0.417000        1.0080           0
     60277 WT5      4489     TIP3     OH2      OT      -0.834000       15.9994           0
     60278 WT5      4489     TIP3     H1       HT       0.417000        1.0080           0
     60279 WT5      4489     TIP3     H2       HT       0.417000        1.0080           0
     60280 WT5      4494     TIP3     OH2      OT      -0.834000       15.9994           0
     60281 WT5      4494     TIP3     H1       HT       0.417000        1.0080           0
     60282 WT5      4494     TIP3     H2       HT       0.417000        1.0080           0
     60283 WT5      4497     TIP3     OH2      OT      -0.834000       15.9994           0
     60284 WT5      4497     TIP3     H1       HT       0.417000        1.0080           0
     60285 WT5      4497     TIP3     H2       HT       0.417000        1.0080           0
     60286 WT5      4498     TIP3     OH2      OT      -0.834000       15.9994           0
     60287 WT5      4498     TIP3     H1       HT       0.417000        1.0080           0
     60288 WT5      4498     TIP3     H2       HT       0.417000        1.0080           0
     60289 WT5      4501     TIP3     OH2      OT      -0.834000       15.9994           0
     60290 WT5      4501     TIP3     H1       HT       0.417000        1.0080           0
     60291 WT5      4501     TIP3     H2       HT       0.417000        1.0080           0
     60292 WT5      4508     TIP3     OH2      OT      -0.834000       15.9994           0
     60293 WT5      4508     TIP3     H1       HT       0.417000        1.0080           0
     60294 WT5      4508     TIP3     H2       HT       0.417000        1.0080           0
     60295 WT5      4515     TIP3     OH2      OT      -0.834000       15.9994           0
     60296 WT5      4515     TIP3     H1       HT       0.417000        1.0080           0
     60297 WT5      4515     TIP3     H2       HT       0.417000        1.0080           0
     60298 WT5      4519     TIP3     OH2      OT      -0.834000       15.9994           0
     60299 WT5      4519     TIP3     H1       HT       0.417000        1.0080           0
     60300 WT5      4519     TIP3     H2       HT       0.417000        1.0080           0
     60301 WT5      4523     TIP3     OH2      OT      -0.834000       15.9994           0
     60302 WT5      4523     TIP3     H1       HT       0.417000        1.0080           0
     60303 WT5      4523     TIP3     H2       HT       0.417000        1.0080           0
     60304 WT5      4530     TIP3     OH2      OT      -0.834000       15.9994           0
     60305 WT5      4530     TIP3     H1       HT       0.417000        1.0080           0
     60306 WT5      4530     TIP3     H2       HT       0.417000        1.0080           0
     60307 WT5      4537     TIP3     OH2      OT      -0.834000       15.9994           0
     60308 WT5      4537     TIP3     H1       HT       0.417000        1.0080           0
     60309 WT5      4537     TIP3     H2       HT       0.417000        1.0080           0
     60310 WT5      4540     TIP3     OH2      OT      -0.834000       15.9994           0
     60311 WT5      4540     TIP3     H1       HT       0.417000        1.0080           0
     60312 WT5      4540     TIP3     H2       HT       0.417000        1.0080           0
     60313 WT5      4543     TIP3     OH2      OT      -0.834000       15.9994           0
     60314 WT5      4543     TIP3     H1       HT       0.417000        1.0080           0
     60315 WT5      4543     TIP3     H2       HT       0.417000        1.0080           0
     60316 WT5      4553     TIP3     OH2      OT      -0.834000       15.9994           0
     60317 WT5      4553     TIP3     H1       HT       0.417000        1.0080           0
     60318 WT5      4553     TIP3     H2       HT       0.417000        1.0080           0
     60319 WT5      4559     TIP3     OH2      OT      -0.834000       15.9994           0
     60320 WT5      4559     TIP3     H1       HT       0.417000        1.0080           0
     60321 WT5      4559     TIP3     H2       HT       0.417000        1.0080           0
     60322 WT5      4567     TIP3     OH2      OT      -0.834000       15.9994           0
     60323 WT5      4567     TIP3     H1       HT       0.417000        1.0080           0
     60324 WT5      4567     TIP3     H2       HT       0.417000        1.0080           0
     60325 WT5      4571     TIP3     OH2      OT      -0.834000       15.9994           0
     60326 WT5      4571     TIP3     H1       HT       0.417000        1.0080           0
     60327 WT5      4571     TIP3     H2       HT       0.417000        1.0080           0
     60328 WT5      4578     TIP3     OH2      OT      -0.834000       15.9994           0
     60329 WT5      4578     TIP3     H1       HT       0.417000        1.0080           0
     60330 WT5      4578     TIP3     H2       HT       0.417000        1.0080           0
     60331 WT5      4579     TIP3     OH2      OT      -0.834000       15.9994           0
     60332 WT5      4579     TIP3     H1       HT       0.417000        1.0080           0
     60333 WT5      4579     TIP3     H2       HT       0.417000        1.0080           0
     60334 WT5      4589     TIP3     OH2      OT      -0.834000       15.9994           0
     60335 WT5      4589     TIP3     H1       HT       0.417000        1.0080           0
     60336 WT5      4589     TIP3     H2       HT       0.417000        1.0080           0
     60337 WT5      4593     TIP3     OH2      OT      -0.834000       15.9994           0
     60338 WT5      4593     TIP3     H1       HT       0.417000        1.0080           0
     60339 WT5      4593     TIP3     H2       HT       0.417000        1.0080           0
     60340 WT5      4603     TIP3     OH2      OT      -0.834000       15.9994           0
     60341 WT5      4603     TIP3     H1       HT       0.417000        1.0080           0
     60342 WT5      4603     TIP3     H2       HT       0.417000        1.0080           0
     60343 WT5      4608     TIP3     OH2      OT      -0.834000       15.9994           0
     60344 WT5      4608     TIP3     H1       HT       0.417000        1.0080           0
     60345 WT5      4608     TIP3     H2       HT       0.417000        1.0080           0
     60346 WT5      4626     TIP3     OH2      OT      -0.834000       15.9994           0
     60347 WT5      4626     TIP3     H1       HT       0.417000        1.0080           0
     60348 WT5      4626     TIP3     H2       HT       0.417000        1.0080           0
     60349 WT5      4631     TIP3     OH2      OT      -0.834000       15.9994           0
     60350 WT5      4631     TIP3     H1       HT       0.417000        1.0080           0
     60351 WT5      4631     TIP3     H2       HT       0.417000        1.0080           0
     60352 WT5      4635     TIP3     OH2      OT      -0.834000       15.9994           0
     60353 WT5      4635     TIP3     H1       HT       0.417000        1.0080           0
     60354 WT5      4635     TIP3     H2       HT       0.417000        1.0080           0
     60355 WT5      4638     TIP3     OH2      OT      -0.834000       15.9994           0
     60356 WT5      4638     TIP3     H1       HT       0.417000        1.0080           0
     60357 WT5      4638     TIP3     H2       HT       0.417000        1.0080           0
     60358 WT5      4640     TIP3     OH2      OT      -0.834000       15.9994           0
     60359 WT5      4640     TIP3     H1       HT       0.417000        1.0080           0
     60360 WT5      4640     TIP3     H2       HT       0.417000        1.0080           0
     60361 WT5      4649     TIP3     OH2      OT      -0.834000       15.9994           0
     60362 WT5      4649     TIP3     H1       HT       0.417000        1.0080           0
     60363 WT5      4649     TIP3     H2       HT       0.417000        1.0080           0
     60364 WT5      4654     TIP3     OH2      OT      -0.834000       15.9994           0
     60365 WT5      4654     TIP3     H1       HT       0.417000        1.0080           0
     60366 WT5      4654     TIP3     H2       HT       0.417000        1.0080           0
     60367 WT5      4658     TIP3     OH2      OT      -0.834000       15.9994           0
     60368 WT5      4658     TIP3     H1       HT       0.417000        1.0080           0
     60369 WT5      4658     TIP3     H2       HT       0.417000        1.0080           0
     60370 WT5      4669     TIP3     OH2      OT      -0.834000       15.9994           0
     60371 WT5      4669     TIP3     H1       HT       0.417000        1.0080           0
     60372 WT5      4669     TIP3     H2       HT       0.417000        1.0080           0
     60373 WT5      4673     TIP3     OH2      OT      -0.834000       15.9994           0
     60374 WT5      4673     TIP3     H1       HT       0.417000        1.0080           0
     60375 WT5      4673     TIP3     H2       HT       0.417000        1.0080           0
     60376 WT5      4680     TIP3     OH2      OT      -0.834000       15.9994           0
     60377 WT5      4680     TIP3     H1       HT       0.417000        1.0080           0
     60378 WT5      4680     TIP3     H2       HT       0.417000        1.0080           0
     60379 WT5      4695     TIP3     OH2      OT      -0.834000       15.9994           0
     60380 WT5      4695     TIP3     H1       HT       0.417000        1.0080           0
     60381 WT5      4695     TIP3     H2       HT       0.417000        1.0080           0
     60382 WT5      4721     TIP3     OH2      OT      -0.834000       15.9994           0
     60383 WT5      4721     TIP3     H1       HT       0.417000        1.0080           0
     60384 WT5      4721     TIP3     H2       HT       0.417000        1.0080           0
     60385 WT5      4746     TIP3     OH2      OT      -0.834000       15.9994           0
     60386 WT5      4746     TIP3     H1       HT       0.417000        1.0080           0
     60387 WT5      4746     TIP3     H2       HT       0.417000        1.0080           0
     60388 WT5      4754     TIP3     OH2      OT      -0.834000       15.9994           0
     60389 WT5      4754     TIP3     H1       HT       0.417000        1.0080           0
     60390 WT5      4754     TIP3     H2       HT       0.417000        1.0080           0
     60391 WT5      4759     TIP3     OH2      OT      -0.834000       15.9994           0
     60392 WT5      4759     TIP3     H1       HT       0.417000        1.0080           0
     60393 WT5      4759     TIP3     H2       HT       0.417000        1.0080           0
     60394 WT5      4760     TIP3     OH2      OT      -0.834000       15.9994           0
     60395 WT5      4760     TIP3     H1       HT       0.417000        1.0080           0
     60396 WT5      4760     TIP3     H2       HT       0.417000        1.0080           0
     60397 WT5      4769     TIP3     OH2      OT      -0.834000       15.9994           0
     60398 WT5      4769     TIP3     H1       HT       0.417000        1.0080           0
     60399 WT5      4769     TIP3     H2       HT       0.417000        1.0080           0
     60400 WT5      4772     TIP3     OH2      OT      -0.834000       15.9994           0
     60401 WT5      4772     TIP3     H1       HT       0.417000        1.0080           0
     60402 WT5      4772     TIP3     H2       HT       0.417000        1.0080           0
     60403 WT5      4773     TIP3     OH2      OT      -0.834000       15.9994           0
     60404 WT5      4773     TIP3     H1       HT       0.417000        1.0080           0
     60405 WT5      4773     TIP3     H2       HT       0.417000        1.0080           0
     60406 WT5      4776     TIP3     OH2      OT      -0.834000       15.9994           0
     60407 WT5      4776     TIP3     H1       HT       0.417000        1.0080           0
     60408 WT5      4776     TIP3     H2       HT       0.417000        1.0080           0
     60409 WT5      4779     TIP3     OH2      OT      -0.834000       15.9994           0
     60410 WT5      4779     TIP3     H1       HT       0.417000        1.0080           0
     60411 WT5      4779     TIP3     H2       HT       0.417000        1.0080           0
     60412 WT5      4794     TIP3     OH2      OT      -0.834000       15.9994           0
     60413 WT5      4794     TIP3     H1       HT       0.417000        1.0080           0
     60414 WT5      4794     TIP3     H2       HT       0.417000        1.0080           0
     60415 WT5      4798     TIP3     OH2      OT      -0.834000       15.9994           0
     60416 WT5      4798     TIP3     H1       HT       0.417000        1.0080           0
     60417 WT5      4798     TIP3     H2       HT       0.417000        1.0080           0
     60418 WT5      4804     TIP3     OH2      OT      -0.834000       15.9994           0
     60419 WT5      4804     TIP3     H1       HT       0.417000        1.0080           0
     60420 WT5      4804     TIP3     H2       HT       0.417000        1.0080           0
     60421 WT5      4809     TIP3     OH2      OT      -0.834000       15.9994           0
     60422 WT5      4809     TIP3     H1       HT       0.417000        1.0080           0
     60423 WT5      4809     TIP3     H2       HT       0.417000        1.0080           0
     60424 WT5      4813     TIP3     OH2      OT      -0.834000       15.9994           0
     60425 WT5      4813     TIP3     H1       HT       0.417000        1.0080           0
     60426 WT5      4813     TIP3     H2       HT       0.417000        1.0080           0
     60427 WT5      4816     TIP3     OH2      OT      -0.834000       15.9994           0
     60428 WT5      4816     TIP3     H1       HT       0.417000        1.0080           0
     60429 WT5      4816     TIP3     H2       HT       0.417000        1.0080           0
     60430 WT5      4817     TIP3     OH2      OT      -0.834000       15.9994           0
     60431 WT5      4817     TIP3     H1       HT       0.417000        1.0080           0
     60432 WT5      4817     TIP3     H2       HT       0.417000        1.0080           0
     60433 WT5      4826     TIP3     OH2      OT      -0.834000       15.9994           0
     60434 WT5      4826     TIP3     H1       HT       0.417000        1.0080           0
     60435 WT5      4826     TIP3     H2       HT       0.417000        1.0080           0
     60436 WT5      4837     TIP3     OH2      OT      -0.834000       15.9994           0
     60437 WT5      4837     TIP3     H1       HT       0.417000        1.0080           0
     60438 WT5      4837     TIP3     H2       HT       0.417000        1.0080           0
     60439 WT5      4849     TIP3     OH2      OT      -0.834000       15.9994           0
     60440 WT5      4849     TIP3     H1       HT       0.417000        1.0080           0
     60441 WT5      4849     TIP3     H2       HT       0.417000        1.0080           0
     60442 WT5      4850     TIP3     OH2      OT      -0.834000       15.9994           0
     60443 WT5      4850     TIP3     H1       HT       0.417000        1.0080           0
     60444 WT5      4850     TIP3     H2       HT       0.417000        1.0080           0
     60445 WT5      4856     TIP3     OH2      OT      -0.834000       15.9994           0
     60446 WT5      4856     TIP3     H1       HT       0.417000        1.0080           0
     60447 WT5      4856     TIP3     H2       HT       0.417000        1.0080           0
     60448 WT5      4857     TIP3     OH2      OT      -0.834000       15.9994           0
     60449 WT5      4857     TIP3     H1       HT       0.417000        1.0080           0
     60450 WT5      4857     TIP3     H2       HT       0.417000        1.0080           0
     60451 WT5      4862     TIP3     OH2      OT      -0.834000       15.9994           0
     60452 WT5      4862     TIP3     H1       HT       0.417000        1.0080           0
     60453 WT5      4862     TIP3     H2       HT       0.417000        1.0080           0
     60454 WT5      4869     TIP3     OH2      OT      -0.834000       15.9994           0
     60455 WT5      4869     TIP3     H1       HT       0.417000        1.0080           0
     60456 WT5      4869     TIP3     H2       HT       0.417000        1.0080           0
     60457 WT5      4887     TIP3     OH2      OT      -0.834000       15.9994           0
     60458 WT5      4887     TIP3     H1       HT       0.417000        1.0080           0
     60459 WT5      4887     TIP3     H2       HT       0.417000        1.0080           0
     60460 WT5      4901     TIP3     OH2      OT      -0.834000       15.9994           0
     60461 WT5      4901     TIP3     H1       HT       0.417000        1.0080           0
     60462 WT5      4901     TIP3     H2       HT       0.417000        1.0080           0
     60463 WT5      4971     TIP3     OH2      OT      -0.834000       15.9994           0
     60464 WT5      4971     TIP3     H1       HT       0.417000        1.0080           0
     60465 WT5      4971     TIP3     H2       HT       0.417000        1.0080           0
     60466 WT5      4981     TIP3     OH2      OT      -0.834000       15.9994           0
     60467 WT5      4981     TIP3     H1       HT       0.417000        1.0080           0
     60468 WT5      4981     TIP3     H2       HT       0.417000        1.0080           0
     60469 WT5      4992     TIP3     OH2      OT      -0.834000       15.9994           0
     60470 WT5      4992     TIP3     H1       HT       0.417000        1.0080           0
     60471 WT5      4992     TIP3     H2       HT       0.417000        1.0080           0
     60472 WT5      5013     TIP3     OH2      OT      -0.834000       15.9994           0
     60473 WT5      5013     TIP3     H1       HT       0.417000        1.0080           0
     60474 WT5      5013     TIP3     H2       HT       0.417000        1.0080           0
     60475 WT5      5022     TIP3     OH2      OT      -0.834000       15.9994           0
     60476 WT5      5022     TIP3     H1       HT       0.417000        1.0080           0
     60477 WT5      5022     TIP3     H2       HT       0.417000        1.0080           0
     60478 WT5      5025     TIP3     OH2      OT      -0.834000       15.9994           0
     60479 WT5      5025     TIP3     H1       HT       0.417000        1.0080           0
     60480 WT5      5025     TIP3     H2       HT       0.417000        1.0080           0
     60481 WT5      5039     TIP3     OH2      OT      -0.834000       15.9994           0
     60482 WT5      5039     TIP3     H1       HT       0.417000        1.0080           0
     60483 WT5      5039     TIP3     H2       HT       0.417000        1.0080           0
     60484 WT5      5090     TIP3     OH2      OT      -0.834000       15.9994           0
     60485 WT5      5090     TIP3     H1       HT       0.417000        1.0080           0
     60486 WT5      5090     TIP3     H2       HT       0.417000        1.0080           0
     60487 WT5      5097     TIP3     OH2      OT      -0.834000       15.9994           0
     60488 WT5      5097     TIP3     H1       HT       0.417000        1.0080           0
     60489 WT5      5097     TIP3     H2       HT       0.417000        1.0080           0
     60490 WT5      5129     TIP3     OH2      OT      -0.834000       15.9994           0
     60491 WT5      5129     TIP3     H1       HT       0.417000        1.0080           0
     60492 WT5      5129     TIP3     H2       HT       0.417000        1.0080           0
     60493 WT5      5142     TIP3     OH2      OT      -0.834000       15.9994           0
     60494 WT5      5142     TIP3     H1       HT       0.417000        1.0080           0
     60495 WT5      5142     TIP3     H2       HT       0.417000        1.0080           0
     60496 WT5      5159     TIP3     OH2      OT      -0.834000       15.9994           0
     60497 WT5      5159     TIP3     H1       HT       0.417000        1.0080           0
     60498 WT5      5159     TIP3     H2       HT       0.417000        1.0080           0
     60499 WT5      5163     TIP3     OH2      OT      -0.834000       15.9994           0
     60500 WT5      5163     TIP3     H1       HT       0.417000        1.0080           0
     60501 WT5      5163     TIP3     H2       HT       0.417000        1.0080           0
     60502 WT5      5167     TIP3     OH2      OT      -0.834000       15.9994           0
     60503 WT5      5167     TIP3     H1       HT       0.417000        1.0080           0
     60504 WT5      5167     TIP3     H2       HT       0.417000        1.0080           0
     60505 WT5      5171     TIP3     OH2      OT      -0.834000       15.9994           0
     60506 WT5      5171     TIP3     H1       HT       0.417000        1.0080           0
     60507 WT5      5171     TIP3     H2       HT       0.417000        1.0080           0
     60508 WT5      5173     TIP3     OH2      OT      -0.834000       15.9994           0
     60509 WT5      5173     TIP3     H1       HT       0.417000        1.0080           0
     60510 WT5      5173     TIP3     H2       HT       0.417000        1.0080           0
     60511 WT5      5183     TIP3     OH2      OT      -0.834000       15.9994           0
     60512 WT5      5183     TIP3     H1       HT       0.417000        1.0080           0
     60513 WT5      5183     TIP3     H2       HT       0.417000        1.0080           0
     60514 WT5      5187     TIP3     OH2      OT      -0.834000       15.9994           0
     60515 WT5      5187     TIP3     H1       HT       0.417000        1.0080           0
     60516 WT5      5187     TIP3     H2       HT       0.417000        1.0080           0
     60517 WT5      5190     TIP3     OH2      OT      -0.834000       15.9994           0
     60518 WT5      5190     TIP3     H1       HT       0.417000        1.0080           0
     60519 WT5      5190     TIP3     H2       HT       0.417000        1.0080           0
     60520 WT5      5191     TIP3     OH2      OT      -0.834000       15.9994           0
     60521 WT5      5191     TIP3     H1       HT       0.417000        1.0080           0
     60522 WT5      5191     TIP3     H2       HT       0.417000        1.0080           0
     60523 WT5      5199     TIP3     OH2      OT      -0.834000       15.9994           0
     60524 WT5      5199     TIP3     H1       HT       0.417000        1.0080           0
     60525 WT5      5199     TIP3     H2       HT       0.417000        1.0080           0
     60526 WT5      5205     TIP3     OH2      OT      -0.834000       15.9994           0
     60527 WT5      5205     TIP3     H1       HT       0.417000        1.0080           0
     60528 WT5      5205     TIP3     H2       HT       0.417000        1.0080           0
     60529 WT5      5213     TIP3     OH2      OT      -0.834000       15.9994           0
     60530 WT5      5213     TIP3     H1       HT       0.417000        1.0080           0
     60531 WT5      5213     TIP3     H2       HT       0.417000        1.0080           0
     60532 WT5      5214     TIP3     OH2      OT      -0.834000       15.9994           0
     60533 WT5      5214     TIP3     H1       HT       0.417000        1.0080           0
     60534 WT5      5214     TIP3     H2       HT       0.417000        1.0080           0
     60535 WT5      5231     TIP3     OH2      OT      -0.834000       15.9994           0
     60536 WT5      5231     TIP3     H1       HT       0.417000        1.0080           0
     60537 WT5      5231     TIP3     H2       HT       0.417000        1.0080           0
     60538 WT5      5253     TIP3     OH2      OT      -0.834000       15.9994           0
     60539 WT5      5253     TIP3     H1       HT       0.417000        1.0080           0
     60540 WT5      5253     TIP3     H2       HT       0.417000        1.0080           0
     60541 WT5      5254     TIP3     OH2      OT      -0.834000       15.9994           0
     60542 WT5      5254     TIP3     H1       HT       0.417000        1.0080           0
     60543 WT5      5254     TIP3     H2       HT       0.417000        1.0080           0
     60544 WT5      5266     TIP3     OH2      OT      -0.834000       15.9994           0
     60545 WT5      5266     TIP3     H1       HT       0.417000        1.0080           0
     60546 WT5      5266     TIP3     H2       HT       0.417000        1.0080           0
     60547 WT5      5274     TIP3     OH2      OT      -0.834000       15.9994           0
     60548 WT5      5274     TIP3     H1       HT       0.417000        1.0080           0
     60549 WT5      5274     TIP3     H2       HT       0.417000        1.0080           0
     60550 WT5      5277     TIP3     OH2      OT      -0.834000       15.9994           0
     60551 WT5      5277     TIP3     H1       HT       0.417000        1.0080           0
     60552 WT5      5277     TIP3     H2       HT       0.417000        1.0080           0
     60553 WT5      5284     TIP3     OH2      OT      -0.834000       15.9994           0
     60554 WT5      5284     TIP3     H1       HT       0.417000        1.0080           0
     60555 WT5      5284     TIP3     H2       HT       0.417000        1.0080           0
     60556 WT5      5286     TIP3     OH2      OT      -0.834000       15.9994           0
     60557 WT5      5286     TIP3     H1       HT       0.417000        1.0080           0
     60558 WT5      5286     TIP3     H2       HT       0.417000        1.0080           0
     60559 WT5      5289     TIP3     OH2      OT      -0.834000       15.9994           0
     60560 WT5      5289     TIP3     H1       HT       0.417000        1.0080           0
     60561 WT5      5289     TIP3     H2       HT       0.417000        1.0080           0
     60562 WT5      5290     TIP3     OH2      OT      -0.834000       15.9994           0
     60563 WT5      5290     TIP3     H1       HT       0.417000        1.0080           0
     60564 WT5      5290     TIP3     H2       HT       0.417000        1.0080           0
     60565 WT5      5294     TIP3     OH2      OT      -0.834000       15.9994           0
     60566 WT5      5294     TIP3     H1       HT       0.417000        1.0080           0
     60567 WT5      5294     TIP3     H2       HT       0.417000        1.0080           0
     60568 WT5      5320     TIP3     OH2      OT      -0.834000       15.9994           0
     60569 WT5      5320     TIP3     H1       HT       0.417000        1.0080           0
     60570 WT5      5320     TIP3     H2       HT       0.417000        1.0080           0
     60571 WT5      5341     TIP3     OH2      OT      -0.834000       15.9994           0
     60572 WT5      5341     TIP3     H1       HT       0.417000        1.0080           0
     60573 WT5      5341     TIP3     H2       HT       0.417000        1.0080           0
     60574 WT5      5342     TIP3     OH2      OT      -0.834000       15.9994           0
     60575 WT5      5342     TIP3     H1       HT       0.417000        1.0080           0
     60576 WT5      5342     TIP3     H2       HT       0.417000        1.0080           0
     60577 WT5      5356     TIP3     OH2      OT      -0.834000       15.9994           0
     60578 WT5      5356     TIP3     H1       HT       0.417000        1.0080           0
     60579 WT5      5356     TIP3     H2       HT       0.417000        1.0080           0
     60580 WT5      5393     TIP3     OH2      OT      -0.834000       15.9994           0
     60581 WT5      5393     TIP3     H1       HT       0.417000        1.0080           0
     60582 WT5      5393     TIP3     H2       HT       0.417000        1.0080           0
     60583 WT5      5421     TIP3     OH2      OT      -0.834000       15.9994           0
     60584 WT5      5421     TIP3     H1       HT       0.417000        1.0080           0
     60585 WT5      5421     TIP3     H2       HT       0.417000        1.0080           0
     60586 WT5      5472     TIP3     OH2      OT      -0.834000       15.9994           0
     60587 WT5      5472     TIP3     H1       HT       0.417000        1.0080           0
     60588 WT5      5472     TIP3     H2       HT       0.417000        1.0080           0
     60589 WT5      5562     TIP3     OH2      OT      -0.834000       15.9994           0
     60590 WT5      5562     TIP3     H1       HT       0.417000        1.0080           0
     60591 WT5      5562     TIP3     H2       HT       0.417000        1.0080           0
     60592 WT5      5600     TIP3     OH2      OT      -0.834000       15.9994           0
     60593 WT5      5600     TIP3     H1       HT       0.417000        1.0080           0
     60594 WT5      5600     TIP3     H2       HT       0.417000        1.0080           0
     60595 WT5      5642     TIP3     OH2      OT      -0.834000       15.9994           0
     60596 WT5      5642     TIP3     H1       HT       0.417000        1.0080           0
     60597 WT5      5642     TIP3     H2       HT       0.417000        1.0080           0
     60598 WT5      5674     TIP3     OH2      OT      -0.834000       15.9994           0
     60599 WT5      5674     TIP3     H1       HT       0.417000        1.0080           0
     60600 WT5      5674     TIP3     H2       HT       0.417000        1.0080           0
     60601 WT5      5716     TIP3     OH2      OT      -0.834000       15.9994           0
     60602 WT5      5716     TIP3     H1       HT       0.417000        1.0080           0
     60603 WT5      5716     TIP3     H2       HT       0.417000        1.0080           0
     60604 WT5      5717     TIP3     OH2      OT      -0.834000       15.9994           0
     60605 WT5      5717     TIP3     H1       HT       0.417000        1.0080           0
     60606 WT5      5717     TIP3     H2       HT       0.417000        1.0080           0
     60607 WT5      5730     TIP3     OH2      OT      -0.834000       15.9994           0
     60608 WT5      5730     TIP3     H1       HT       0.417000        1.0080           0
     60609 WT5      5730     TIP3     H2       HT       0.417000        1.0080           0
     60610 WT5      5748     TIP3     OH2      OT      -0.834000       15.9994           0
     60611 WT5      5748     TIP3     H1       HT       0.417000        1.0080           0
     60612 WT5      5748     TIP3     H2       HT       0.417000        1.0080           0
     60613 WT5      5782     TIP3     OH2      OT      -0.834000       15.9994           0
     60614 WT5      5782     TIP3     H1       HT       0.417000        1.0080           0
     60615 WT5      5782     TIP3     H2       HT       0.417000        1.0080           0
     60616 WT5      5804     TIP3     OH2      OT      -0.834000       15.9994           0
     60617 WT5      5804     TIP3     H1       HT       0.417000        1.0080           0
     60618 WT5      5804     TIP3     H2       HT       0.417000        1.0080           0
     60619 WT5      5811     TIP3     OH2      OT      -0.834000       15.9994           0
     60620 WT5      5811     TIP3     H1       HT       0.417000        1.0080           0
     60621 WT5      5811     TIP3     H2       HT       0.417000        1.0080           0
     60622 WT5      5827     TIP3     OH2      OT      -0.834000       15.9994           0
     60623 WT5      5827     TIP3     H1       HT       0.417000        1.0080           0
     60624 WT5      5827     TIP3     H2       HT       0.417000        1.0080           0
     60625 WT5      5870     TIP3     OH2      OT      -0.834000       15.9994           0
     60626 WT5      5870     TIP3     H1       HT       0.417000        1.0080           0
     60627 WT5      5870     TIP3     H2       HT       0.417000        1.0080           0
     60628 WT5      5899     TIP3     OH2      OT      -0.834000       15.9994           0
     60629 WT5      5899     TIP3     H1       HT       0.417000        1.0080           0
     60630 WT5      5899     TIP3     H2       HT       0.417000        1.0080           0
     60631 WT5      5901     TIP3     OH2      OT      -0.834000       15.9994           0
     60632 WT5      5901     TIP3     H1       HT       0.417000        1.0080           0
     60633 WT5      5901     TIP3     H2       HT       0.417000        1.0080           0
     60634 WT5      6021     TIP3     OH2      OT      -0.834000       15.9994           0
     60635 WT5      6021     TIP3     H1       HT       0.417000        1.0080           0
     60636 WT5      6021     TIP3     H2       HT       0.417000        1.0080           0
     60637 WT5      6052     TIP3     OH2      OT      -0.834000       15.9994           0
     60638 WT5      6052     TIP3     H1       HT       0.417000        1.0080           0
     60639 WT5      6052     TIP3     H2       HT       0.417000        1.0080           0
     60640 WT5      6098     TIP3     OH2      OT      -0.834000       15.9994           0
     60641 WT5      6098     TIP3     H1       HT       0.417000        1.0080           0
     60642 WT5      6098     TIP3     H2       HT       0.417000        1.0080           0
     60643 WT5      6130     TIP3     OH2      OT      -0.834000       15.9994           0
     60644 WT5      6130     TIP3     H1       HT       0.417000        1.0080           0
     60645 WT5      6130     TIP3     H2       HT       0.417000        1.0080           0
     60646 WT5      6158     TIP3     OH2      OT      -0.834000       15.9994           0
     60647 WT5      6158     TIP3     H1       HT       0.417000        1.0080           0
     60648 WT5      6158     TIP3     H2       HT       0.417000        1.0080           0
     60649 WT5      6168     TIP3     OH2      OT      -0.834000       15.9994           0
     60650 WT5      6168     TIP3     H1       HT       0.417000        1.0080           0
     60651 WT5      6168     TIP3     H2       HT       0.417000        1.0080           0
     60652 WT5      6240     TIP3     OH2      OT      -0.834000       15.9994           0
     60653 WT5      6240     TIP3     H1       HT       0.417000        1.0080           0
     60654 WT5      6240     TIP3     H2       HT       0.417000        1.0080           0
     60655 WT5      6350     TIP3     OH2      OT      -0.834000       15.9994           0
     60656 WT5      6350     TIP3     H1       HT       0.417000        1.0080           0
     60657 WT5      6350     TIP3     H2       HT       0.417000        1.0080           0
     60658 WT5      6479     TIP3     OH2      OT      -0.834000       15.9994           0
     60659 WT5      6479     TIP3     H1       HT       0.417000        1.0080           0
     60660 WT5      6479     TIP3     H2       HT       0.417000        1.0080           0
     60661 WT5      6628     TIP3     OH2      OT      -0.834000       15.9994           0
     60662 WT5      6628     TIP3     H1       HT       0.417000        1.0080           0
     60663 WT5      6628     TIP3     H2       HT       0.417000        1.0080           0
     60664 WT5      6650     TIP3     OH2      OT      -0.834000       15.9994           0
     60665 WT5      6650     TIP3     H1       HT       0.417000        1.0080           0
     60666 WT5      6650     TIP3     H2       HT       0.417000        1.0080           0
     60667 WT5      6671     TIP3     OH2      OT      -0.834000       15.9994           0
     60668 WT5      6671     TIP3     H1       HT       0.417000        1.0080           0
     60669 WT5      6671     TIP3     H2       HT       0.417000        1.0080           0
     60670 WT5      6726     TIP3     OH2      OT      -0.834000       15.9994           0
     60671 WT5      6726     TIP3     H1       HT       0.417000        1.0080           0
     60672 WT5      6726     TIP3     H2       HT       0.417000        1.0080           0
     60673 WT5      6751     TIP3     OH2      OT      -0.834000       15.9994           0
     60674 WT5      6751     TIP3     H1       HT       0.417000        1.0080           0
     60675 WT5      6751     TIP3     H2       HT       0.417000        1.0080           0
     60676 WT5      6773     TIP3     OH2      OT      -0.834000       15.9994           0
     60677 WT5      6773     TIP3     H1       HT       0.417000        1.0080           0
     60678 WT5      6773     TIP3     H2       HT       0.417000        1.0080           0
     60679 WT5      6964     TIP3     OH2      OT      -0.834000       15.9994           0
     60680 WT5      6964     TIP3     H1       HT       0.417000        1.0080           0
     60681 WT5      6964     TIP3     H2       HT       0.417000        1.0080           0
     60682 WT5      6980     TIP3     OH2      OT      -0.834000       15.9994           0
     60683 WT5      6980     TIP3     H1       HT       0.417000        1.0080           0
     60684 WT5      6980     TIP3     H2       HT       0.417000        1.0080           0
     60685 WT5      7027     TIP3     OH2      OT      -0.834000       15.9994           0
     60686 WT5      7027     TIP3     H1       HT       0.417000        1.0080           0
     60687 WT5      7027     TIP3     H2       HT       0.417000        1.0080           0
     60688 WT5      7114     TIP3     OH2      OT      -0.834000       15.9994           0
     60689 WT5      7114     TIP3     H1       HT       0.417000        1.0080           0
     60690 WT5      7114     TIP3     H2       HT       0.417000        1.0080           0
     60691 WT5      7133     TIP3     OH2      OT      -0.834000       15.9994           0
     60692 WT5      7133     TIP3     H1       HT       0.417000        1.0080           0
     60693 WT5      7133     TIP3     H2       HT       0.417000        1.0080           0
     60694 WT5      7141     TIP3     OH2      OT      -0.834000       15.9994           0
     60695 WT5      7141     TIP3     H1       HT       0.417000        1.0080           0
     60696 WT5      7141     TIP3     H2       HT       0.417000        1.0080           0
     60697 WT5      7165     TIP3     OH2      OT      -0.834000       15.9994           0
     60698 WT5      7165     TIP3     H1       HT       0.417000        1.0080           0
     60699 WT5      7165     TIP3     H2       HT       0.417000        1.0080           0
     60700 WT5      7196     TIP3     OH2      OT      -0.834000       15.9994           0
     60701 WT5      7196     TIP3     H1       HT       0.417000        1.0080           0
     60702 WT5      7196     TIP3     H2       HT       0.417000        1.0080           0
     60703 WT5      7222     TIP3     OH2      OT      -0.834000       15.9994           0
     60704 WT5      7222     TIP3     H1       HT       0.417000        1.0080           0
     60705 WT5      7222     TIP3     H2       HT       0.417000        1.0080           0
     60706 WT5      7290     TIP3     OH2      OT      -0.834000       15.9994           0
     60707 WT5      7290     TIP3     H1       HT       0.417000        1.0080           0
     60708 WT5      7290     TIP3     H2       HT       0.417000        1.0080           0
     60709 WT5      7295     TIP3     OH2      OT      -0.834000       15.9994           0
     60710 WT5      7295     TIP3     H1       HT       0.417000        1.0080           0
     60711 WT5      7295     TIP3     H2       HT       0.417000        1.0080           0
     60712 WT5      7308     TIP3     OH2      OT      -0.834000       15.9994           0
     60713 WT5      7308     TIP3     H1       HT       0.417000        1.0080           0
     60714 WT5      7308     TIP3     H2       HT       0.417000        1.0080           0
     60715 WT5      7427     TIP3     OH2      OT      -0.834000       15.9994           0
     60716 WT5      7427     TIP3     H1       HT       0.417000        1.0080           0
     60717 WT5      7427     TIP3     H2       HT       0.417000        1.0080           0
     60718 WT5      7479     TIP3     OH2      OT      -0.834000       15.9994           0
     60719 WT5      7479     TIP3     H1       HT       0.417000        1.0080           0
     60720 WT5      7479     TIP3     H2       HT       0.417000        1.0080           0
     60721 WT5      7510     TIP3     OH2      OT      -0.834000       15.9994           0
     60722 WT5      7510     TIP3     H1       HT       0.417000        1.0080           0
     60723 WT5      7510     TIP3     H2       HT       0.417000        1.0080           0
     60724 WT5      7532     TIP3     OH2      OT      -0.834000       15.9994           0
     60725 WT5      7532     TIP3     H1       HT       0.417000        1.0080           0
     60726 WT5      7532     TIP3     H2       HT       0.417000        1.0080           0
     60727 WT5      7533     TIP3     OH2      OT      -0.834000       15.9994           0
     60728 WT5      7533     TIP3     H1       HT       0.417000        1.0080           0
     60729 WT5      7533     TIP3     H2       HT       0.417000        1.0080           0
     60730 WT5      7537     TIP3     OH2      OT      -0.834000       15.9994           0
     60731 WT5      7537     TIP3     H1       HT       0.417000        1.0080           0
     60732 WT5      7537     TIP3     H2       HT       0.417000        1.0080           0
     60733 WT5      7550     TIP3     OH2      OT      -0.834000       15.9994           0
     60734 WT5      7550     TIP3     H1       HT       0.417000        1.0080           0
     60735 WT5      7550     TIP3     H2       HT       0.417000        1.0080           0
     60736 WT5      7554     TIP3     OH2      OT      -0.834000       15.9994           0
     60737 WT5      7554     TIP3     H1       HT       0.417000        1.0080           0
     60738 WT5      7554     TIP3     H2       HT       0.417000        1.0080           0
     60739 WT5      7557     TIP3     OH2      OT      -0.834000       15.9994           0
     60740 WT5      7557     TIP3     H1       HT       0.417000        1.0080           0
     60741 WT5      7557     TIP3     H2       HT       0.417000        1.0080           0
     60742 WT5      7563     TIP3     OH2      OT      -0.834000       15.9994           0
     60743 WT5      7563     TIP3     H1       HT       0.417000        1.0080           0
     60744 WT5      7563     TIP3     H2       HT       0.417000        1.0080           0
     60745 WT5      7568     TIP3     OH2      OT      -0.834000       15.9994           0
     60746 WT5      7568     TIP3     H1       HT       0.417000        1.0080           0
     60747 WT5      7568     TIP3     H2       HT       0.417000        1.0080           0
     60748 WT5      7576     TIP3     OH2      OT      -0.834000       15.9994           0
     60749 WT5      7576     TIP3     H1       HT       0.417000        1.0080           0
     60750 WT5      7576     TIP3     H2       HT       0.417000        1.0080           0
     60751 WT5      7583     TIP3     OH2      OT      -0.834000       15.9994           0
     60752 WT5      7583     TIP3     H1       HT       0.417000        1.0080           0
     60753 WT5      7583     TIP3     H2       HT       0.417000        1.0080           0
     60754 WT5      7592     TIP3     OH2      OT      -0.834000       15.9994           0
     60755 WT5      7592     TIP3     H1       HT       0.417000        1.0080           0
     60756 WT5      7592     TIP3     H2       HT       0.417000        1.0080           0
     60757 WT5      7603     TIP3     OH2      OT      -0.834000       15.9994           0
     60758 WT5      7603     TIP3     H1       HT       0.417000        1.0080           0
     60759 WT5      7603     TIP3     H2       HT       0.417000        1.0080           0
     60760 WT5      7605     TIP3     OH2      OT      -0.834000       15.9994           0
     60761 WT5      7605     TIP3     H1       HT       0.417000        1.0080           0
     60762 WT5      7605     TIP3     H2       HT       0.417000        1.0080           0
     60763 WT5      7607     TIP3     OH2      OT      -0.834000       15.9994           0
     60764 WT5      7607     TIP3     H1       HT       0.417000        1.0080           0
     60765 WT5      7607     TIP3     H2       HT       0.417000        1.0080           0
     60766 WT5      7630     TIP3     OH2      OT      -0.834000       15.9994           0
     60767 WT5      7630     TIP3     H1       HT       0.417000        1.0080           0
     60768 WT5      7630     TIP3     H2       HT       0.417000        1.0080           0
     60769 WT5      7631     TIP3     OH2      OT      -0.834000       15.9994           0
     60770 WT5      7631     TIP3     H1       HT       0.417000        1.0080           0
     60771 WT5      7631     TIP3     H2       HT       0.417000        1.0080           0
     60772 WT5      7634     TIP3     OH2      OT      -0.834000       15.9994           0
     60773 WT5      7634     TIP3     H1       HT       0.417000        1.0080           0
     60774 WT5      7634     TIP3     H2       HT       0.417000        1.0080           0
     60775 WT5      7638     TIP3     OH2      OT      -0.834000       15.9994           0
     60776 WT5      7638     TIP3     H1       HT       0.417000        1.0080           0
     60777 WT5      7638     TIP3     H2       HT       0.417000        1.0080           0
     60778 WT5      7642     TIP3     OH2      OT      -0.834000       15.9994           0
     60779 WT5      7642     TIP3     H1       HT       0.417000        1.0080           0
     60780 WT5      7642     TIP3     H2       HT       0.417000        1.0080           0
     60781 WT5      7647     TIP3     OH2      OT      -0.834000       15.9994           0
     60782 WT5      7647     TIP3     H1       HT       0.417000        1.0080           0
     60783 WT5      7647     TIP3     H2       HT       0.417000        1.0080           0
     60784 WT5      7650     TIP3     OH2      OT      -0.834000       15.9994           0
     60785 WT5      7650     TIP3     H1       HT       0.417000        1.0080           0
     60786 WT5      7650     TIP3     H2       HT       0.417000        1.0080           0
     60787 WT5      7661     TIP3     OH2      OT      -0.834000       15.9994           0
     60788 WT5      7661     TIP3     H1       HT       0.417000        1.0080           0
     60789 WT5      7661     TIP3     H2       HT       0.417000        1.0080           0
     60790 WT5      7676     TIP3     OH2      OT      -0.834000       15.9994           0
     60791 WT5      7676     TIP3     H1       HT       0.417000        1.0080           0
     60792 WT5      7676     TIP3     H2       HT       0.417000        1.0080           0
     60793 WT5      7707     TIP3     OH2      OT      -0.834000       15.9994           0
     60794 WT5      7707     TIP3     H1       HT       0.417000        1.0080           0
     60795 WT5      7707     TIP3     H2       HT       0.417000        1.0080           0
     60796 WT5      7715     TIP3     OH2      OT      -0.834000       15.9994           0
     60797 WT5      7715     TIP3     H1       HT       0.417000        1.0080           0
     60798 WT5      7715     TIP3     H2       HT       0.417000        1.0080           0
     60799 WT5      7716     TIP3     OH2      OT      -0.834000       15.9994           0
     60800 WT5      7716     TIP3     H1       HT       0.417000        1.0080           0
     60801 WT5      7716     TIP3     H2       HT       0.417000        1.0080           0
     60802 WT5      7739     TIP3     OH2      OT      -0.834000       15.9994           0
     60803 WT5      7739     TIP3     H1       HT       0.417000        1.0080           0
     60804 WT5      7739     TIP3     H2       HT       0.417000        1.0080           0
     60805 WT5      7748     TIP3     OH2      OT      -0.834000       15.9994           0
     60806 WT5      7748     TIP3     H1       HT       0.417000        1.0080           0
     60807 WT5      7748     TIP3     H2       HT       0.417000        1.0080           0
     60808 WT5      7784     TIP3     OH2      OT      -0.834000       15.9994           0
     60809 WT5      7784     TIP3     H1       HT       0.417000        1.0080           0
     60810 WT5      7784     TIP3     H2       HT       0.417000        1.0080           0
     60811 WT5      7825     TIP3     OH2      OT      -0.834000       15.9994           0
     60812 WT5      7825     TIP3     H1       HT       0.417000        1.0080           0
     60813 WT5      7825     TIP3     H2       HT       0.417000        1.0080           0
     60814 WT5      7833     TIP3     OH2      OT      -0.834000       15.9994           0
     60815 WT5      7833     TIP3     H1       HT       0.417000        1.0080           0
     60816 WT5      7833     TIP3     H2       HT       0.417000        1.0080           0
     60817 WT5      7846     TIP3     OH2      OT      -0.834000       15.9994           0
     60818 WT5      7846     TIP3     H1       HT       0.417000        1.0080           0
     60819 WT5      7846     TIP3     H2       HT       0.417000        1.0080           0
     60820 WT5      7925     TIP3     OH2      OT      -0.834000       15.9994           0
     60821 WT5      7925     TIP3     H1       HT       0.417000        1.0080           0
     60822 WT5      7925     TIP3     H2       HT       0.417000        1.0080           0
     60823 WT5      7944     TIP3     OH2      OT      -0.834000       15.9994           0
     60824 WT5      7944     TIP3     H1       HT       0.417000        1.0080           0
     60825 WT5      7944     TIP3     H2       HT       0.417000        1.0080           0
     60826 WT5      7945     TIP3     OH2      OT      -0.834000       15.9994           0
     60827 WT5      7945     TIP3     H1       HT       0.417000        1.0080           0
     60828 WT5      7945     TIP3     H2       HT       0.417000        1.0080           0
     60829 WT5      7951     TIP3     OH2      OT      -0.834000       15.9994           0
     60830 WT5      7951     TIP3     H1       HT       0.417000        1.0080           0
     60831 WT5      7951     TIP3     H2       HT       0.417000        1.0080           0
     60832 WT5      7959     TIP3     OH2      OT      -0.834000       15.9994           0
     60833 WT5      7959     TIP3     H1       HT       0.417000        1.0080           0
     60834 WT5      7959     TIP3     H2       HT       0.417000        1.0080           0
     60835 WT5      7978     TIP3     OH2      OT      -0.834000       15.9994           0
     60836 WT5      7978     TIP3     H1       HT       0.417000        1.0080           0
     60837 WT5      7978     TIP3     H2       HT       0.417000        1.0080           0
     60838 WT5      7979     TIP3     OH2      OT      -0.834000       15.9994           0
     60839 WT5      7979     TIP3     H1       HT       0.417000        1.0080           0
     60840 WT5      7979     TIP3     H2       HT       0.417000        1.0080           0
     60841 WT5      7985     TIP3     OH2      OT      -0.834000       15.9994           0
     60842 WT5      7985     TIP3     H1       HT       0.417000        1.0080           0
     60843 WT5      7985     TIP3     H2       HT       0.417000        1.0080           0
     60844 WT5      7994     TIP3     OH2      OT      -0.834000       15.9994           0
     60845 WT5      7994     TIP3     H1       HT       0.417000        1.0080           0
     60846 WT5      7994     TIP3     H2       HT       0.417000        1.0080           0
     60847 WT5      7997     TIP3     OH2      OT      -0.834000       15.9994           0
     60848 WT5      7997     TIP3     H1       HT       0.417000        1.0080           0
     60849 WT5      7997     TIP3     H2       HT       0.417000        1.0080           0
     60850 WT5      7998     TIP3     OH2      OT      -0.834000       15.9994           0
     60851 WT5      7998     TIP3     H1       HT       0.417000        1.0080           0
     60852 WT5      7998     TIP3     H2       HT       0.417000        1.0080           0
     60853 WT5      8000     TIP3     OH2      OT      -0.834000       15.9994           0
     60854 WT5      8000     TIP3     H1       HT       0.417000        1.0080           0
     60855 WT5      8000     TIP3     H2       HT       0.417000        1.0080           0
     60856 WT5      8014     TIP3     OH2      OT      -0.834000       15.9994           0
     60857 WT5      8014     TIP3     H1       HT       0.417000        1.0080           0
     60858 WT5      8014     TIP3     H2       HT       0.417000        1.0080           0
     60859 WT5      8017     TIP3     OH2      OT      -0.834000       15.9994           0
     60860 WT5      8017     TIP3     H1       HT       0.417000        1.0080           0
     60861 WT5      8017     TIP3     H2       HT       0.417000        1.0080           0
     60862 WT5      8023     TIP3     OH2      OT      -0.834000       15.9994           0
     60863 WT5      8023     TIP3     H1       HT       0.417000        1.0080           0
     60864 WT5      8023     TIP3     H2       HT       0.417000        1.0080           0
     60865 WT5      8024     TIP3     OH2      OT      -0.834000       15.9994           0
     60866 WT5      8024     TIP3     H1       HT       0.417000        1.0080           0
     60867 WT5      8024     TIP3     H2       HT       0.417000        1.0080           0
     60868 WT5      8029     TIP3     OH2      OT      -0.834000       15.9994           0
     60869 WT5      8029     TIP3     H1       HT       0.417000        1.0080           0
     60870 WT5      8029     TIP3     H2       HT       0.417000        1.0080           0
     60871 WT5      8031     TIP3     OH2      OT      -0.834000       15.9994           0
     60872 WT5      8031     TIP3     H1       HT       0.417000        1.0080           0
     60873 WT5      8031     TIP3     H2       HT       0.417000        1.0080           0
     60874 WT5      8034     TIP3     OH2      OT      -0.834000       15.9994           0
     60875 WT5      8034     TIP3     H1       HT       0.417000        1.0080           0
     60876 WT5      8034     TIP3     H2       HT       0.417000        1.0080           0
     60877 WT5      8046     TIP3     OH2      OT      -0.834000       15.9994           0
     60878 WT5      8046     TIP3     H1       HT       0.417000        1.0080           0
     60879 WT5      8046     TIP3     H2       HT       0.417000        1.0080           0
     60880 WT5      8055     TIP3     OH2      OT      -0.834000       15.9994           0
     60881 WT5      8055     TIP3     H1       HT       0.417000        1.0080           0
     60882 WT5      8055     TIP3     H2       HT       0.417000        1.0080           0
     60883 WT5      8064     TIP3     OH2      OT      -0.834000       15.9994           0
     60884 WT5      8064     TIP3     H1       HT       0.417000        1.0080           0
     60885 WT5      8064     TIP3     H2       HT       0.417000        1.0080           0
     60886 WT5      8067     TIP3     OH2      OT      -0.834000       15.9994           0
     60887 WT5      8067     TIP3     H1       HT       0.417000        1.0080           0
     60888 WT5      8067     TIP3     H2       HT       0.417000        1.0080           0
     60889 WT5      8068     TIP3     OH2      OT      -0.834000       15.9994           0
     60890 WT5      8068     TIP3     H1       HT       0.417000        1.0080           0
     60891 WT5      8068     TIP3     H2       HT       0.417000        1.0080           0
     60892 WT5      8076     TIP3     OH2      OT      -0.834000       15.9994           0
     60893 WT5      8076     TIP3     H1       HT       0.417000        1.0080           0
     60894 WT5      8076     TIP3     H2       HT       0.417000        1.0080           0
     60895 WT5      8079     TIP3     OH2      OT      -0.834000       15.9994           0
     60896 WT5      8079     TIP3     H1       HT       0.417000        1.0080           0
     60897 WT5      8079     TIP3     H2       HT       0.417000        1.0080           0
     60898 WT5      8082     TIP3     OH2      OT      -0.834000       15.9994           0
     60899 WT5      8082     TIP3     H1       HT       0.417000        1.0080           0
     60900 WT5      8082     TIP3     H2       HT       0.417000        1.0080           0
     60901 WT5      8083     TIP3     OH2      OT      -0.834000       15.9994           0
     60902 WT5      8083     TIP3     H1       HT       0.417000        1.0080           0
     60903 WT5      8083     TIP3     H2       HT       0.417000        1.0080           0
     60904 WT5      8094     TIP3     OH2      OT      -0.834000       15.9994           0
     60905 WT5      8094     TIP3     H1       HT       0.417000        1.0080           0
     60906 WT5      8094     TIP3     H2       HT       0.417000        1.0080           0
     60907 WT5      8097     TIP3     OH2      OT      -0.834000       15.9994           0
     60908 WT5      8097     TIP3     H1       HT       0.417000        1.0080           0
     60909 WT5      8097     TIP3     H2       HT       0.417000        1.0080           0
     60910 WT5      8123     TIP3     OH2      OT      -0.834000       15.9994           0
     60911 WT5      8123     TIP3     H1       HT       0.417000        1.0080           0
     60912 WT5      8123     TIP3     H2       HT       0.417000        1.0080           0
     60913 WT5      8124     TIP3     OH2      OT      -0.834000       15.9994           0
     60914 WT5      8124     TIP3     H1       HT       0.417000        1.0080           0
     60915 WT5      8124     TIP3     H2       HT       0.417000        1.0080           0
     60916 WT5      8133     TIP3     OH2      OT      -0.834000       15.9994           0
     60917 WT5      8133     TIP3     H1       HT       0.417000        1.0080           0
     60918 WT5      8133     TIP3     H2       HT       0.417000        1.0080           0
     60919 WT5      8136     TIP3     OH2      OT      -0.834000       15.9994           0
     60920 WT5      8136     TIP3     H1       HT       0.417000        1.0080           0
     60921 WT5      8136     TIP3     H2       HT       0.417000        1.0080           0
     60922 WT5      8140     TIP3     OH2      OT      -0.834000       15.9994           0
     60923 WT5      8140     TIP3     H1       HT       0.417000        1.0080           0
     60924 WT5      8140     TIP3     H2       HT       0.417000        1.0080           0
     60925 WT5      8141     TIP3     OH2      OT      -0.834000       15.9994           0
     60926 WT5      8141     TIP3     H1       HT       0.417000        1.0080           0
     60927 WT5      8141     TIP3     H2       HT       0.417000        1.0080           0
     60928 WT5      8142     TIP3     OH2      OT      -0.834000       15.9994           0
     60929 WT5      8142     TIP3     H1       HT       0.417000        1.0080           0
     60930 WT5      8142     TIP3     H2       HT       0.417000        1.0080           0
     60931 WT5      8161     TIP3     OH2      OT      -0.834000       15.9994           0
     60932 WT5      8161     TIP3     H1       HT       0.417000        1.0080           0
     60933 WT5      8161     TIP3     H2       HT       0.417000        1.0080           0
     60934 WT5      8173     TIP3     OH2      OT      -0.834000       15.9994           0
     60935 WT5      8173     TIP3     H1       HT       0.417000        1.0080           0
     60936 WT5      8173     TIP3     H2       HT       0.417000        1.0080           0
     60937 WT5      8174     TIP3     OH2      OT      -0.834000       15.9994           0
     60938 WT5      8174     TIP3     H1       HT       0.417000        1.0080           0
     60939 WT5      8174     TIP3     H2       HT       0.417000        1.0080           0
     60940 WT5      8176     TIP3     OH2      OT      -0.834000       15.9994           0
     60941 WT5      8176     TIP3     H1       HT       0.417000        1.0080           0
     60942 WT5      8176     TIP3     H2       HT       0.417000        1.0080           0
     60943 WT5      8183     TIP3     OH2      OT      -0.834000       15.9994           0
     60944 WT5      8183     TIP3     H1       HT       0.417000        1.0080           0
     60945 WT5      8183     TIP3     H2       HT       0.417000        1.0080           0
     60946 WT5      8191     TIP3     OH2      OT      -0.834000       15.9994           0
     60947 WT5      8191     TIP3     H1       HT       0.417000        1.0080           0
     60948 WT5      8191     TIP3     H2       HT       0.417000        1.0080           0
     60949 WT5      8193     TIP3     OH2      OT      -0.834000       15.9994           0
     60950 WT5      8193     TIP3     H1       HT       0.417000        1.0080           0
     60951 WT5      8193     TIP3     H2       HT       0.417000        1.0080           0
     60952 WT5      8195     TIP3     OH2      OT      -0.834000       15.9994           0
     60953 WT5      8195     TIP3     H1       HT       0.417000        1.0080           0
     60954 WT5      8195     TIP3     H2       HT       0.417000        1.0080           0
     60955 WT5      8202     TIP3     OH2      OT      -0.834000       15.9994           0
     60956 WT5      8202     TIP3     H1       HT       0.417000        1.0080           0
     60957 WT5      8202     TIP3     H2       HT       0.417000        1.0080           0
     60958 WT5      8206     TIP3     OH2      OT      -0.834000       15.9994           0
     60959 WT5      8206     TIP3     H1       HT       0.417000        1.0080           0
     60960 WT5      8206     TIP3     H2       HT       0.417000        1.0080           0
     60961 WT5      8218     TIP3     OH2      OT      -0.834000       15.9994           0
     60962 WT5      8218     TIP3     H1       HT       0.417000        1.0080           0
     60963 WT5      8218     TIP3     H2       HT       0.417000        1.0080           0
     60964 WT5      8222     TIP3     OH2      OT      -0.834000       15.9994           0
     60965 WT5      8222     TIP3     H1       HT       0.417000        1.0080           0
     60966 WT5      8222     TIP3     H2       HT       0.417000        1.0080           0
     60967 WT5      8229     TIP3     OH2      OT      -0.834000       15.9994           0
     60968 WT5      8229     TIP3     H1       HT       0.417000        1.0080           0
     60969 WT5      8229     TIP3     H2       HT       0.417000        1.0080           0
     60970 WT5      8230     TIP3     OH2      OT      -0.834000       15.9994           0
     60971 WT5      8230     TIP3     H1       HT       0.417000        1.0080           0
     60972 WT5      8230     TIP3     H2       HT       0.417000        1.0080           0
     60973 WT5      8241     TIP3     OH2      OT      -0.834000       15.9994           0
     60974 WT5      8241     TIP3     H1       HT       0.417000        1.0080           0
     60975 WT5      8241     TIP3     H2       HT       0.417000        1.0080           0
     60976 WT5      8242     TIP3     OH2      OT      -0.834000       15.9994           0
     60977 WT5      8242     TIP3     H1       HT       0.417000        1.0080           0
     60978 WT5      8242     TIP3     H2       HT       0.417000        1.0080           0
     60979 WT5      8260     TIP3     OH2      OT      -0.834000       15.9994           0
     60980 WT5      8260     TIP3     H1       HT       0.417000        1.0080           0
     60981 WT5      8260     TIP3     H2       HT       0.417000        1.0080           0
     60982 WT5      8263     TIP3     OH2      OT      -0.834000       15.9994           0
     60983 WT5      8263     TIP3     H1       HT       0.417000        1.0080           0
     60984 WT5      8263     TIP3     H2       HT       0.417000        1.0080           0
     60985 WT5      8264     TIP3     OH2      OT      -0.834000       15.9994           0
     60986 WT5      8264     TIP3     H1       HT       0.417000        1.0080           0
     60987 WT5      8264     TIP3     H2       HT       0.417000        1.0080           0
     60988 WT5      8265     TIP3     OH2      OT      -0.834000       15.9994           0
     60989 WT5      8265     TIP3     H1       HT       0.417000        1.0080           0
     60990 WT5      8265     TIP3     H2       HT       0.417000        1.0080           0
     60991 WT5      8266     TIP3     OH2      OT      -0.834000       15.9994           0
     60992 WT5      8266     TIP3     H1       HT       0.417000        1.0080           0
     60993 WT5      8266     TIP3     H2       HT       0.417000        1.0080           0
     60994 WT5      8278     TIP3     OH2      OT      -0.834000       15.9994           0
     60995 WT5      8278     TIP3     H1       HT       0.417000        1.0080           0
     60996 WT5      8278     TIP3     H2       HT       0.417000        1.0080           0
     60997 WT5      8289     TIP3     OH2      OT      -0.834000       15.9994           0
     60998 WT5      8289     TIP3     H1       HT       0.417000        1.0080           0
     60999 WT5      8289     TIP3     H2       HT       0.417000        1.0080           0
     61000 WT5      8290     TIP3     OH2      OT      -0.834000       15.9994           0
     61001 WT5      8290     TIP3     H1       HT       0.417000        1.0080           0
     61002 WT5      8290     TIP3     H2       HT       0.417000        1.0080           0
     61003 WT5      8308     TIP3     OH2      OT      -0.834000       15.9994           0
     61004 WT5      8308     TIP3     H1       HT       0.417000        1.0080           0
     61005 WT5      8308     TIP3     H2       HT       0.417000        1.0080           0
     61006 WT5      8309     TIP3     OH2      OT      -0.834000       15.9994           0
     61007 WT5      8309     TIP3     H1       HT       0.417000        1.0080           0
     61008 WT5      8309     TIP3     H2       HT       0.417000        1.0080           0
     61009 WT5      8328     TIP3     OH2      OT      -0.834000       15.9994           0
     61010 WT5      8328     TIP3     H1       HT       0.417000        1.0080           0
     61011 WT5      8328     TIP3     H2       HT       0.417000        1.0080           0
     61012 WT5      8330     TIP3     OH2      OT      -0.834000       15.9994           0
     61013 WT5      8330     TIP3     H1       HT       0.417000        1.0080           0
     61014 WT5      8330     TIP3     H2       HT       0.417000        1.0080           0
     61015 WT5      8350     TIP3     OH2      OT      -0.834000       15.9994           0
     61016 WT5      8350     TIP3     H1       HT       0.417000        1.0080           0
     61017 WT5      8350     TIP3     H2       HT       0.417000        1.0080           0
     61018 WT5      8351     TIP3     OH2      OT      -0.834000       15.9994           0
     61019 WT5      8351     TIP3     H1       HT       0.417000        1.0080           0
     61020 WT5      8351     TIP3     H2       HT       0.417000        1.0080           0
     61021 WT5      8352     TIP3     OH2      OT      -0.834000       15.9994           0
     61022 WT5      8352     TIP3     H1       HT       0.417000        1.0080           0
     61023 WT5      8352     TIP3     H2       HT       0.417000        1.0080           0
     61024 WT5      8357     TIP3     OH2      OT      -0.834000       15.9994           0
     61025 WT5      8357     TIP3     H1       HT       0.417000        1.0080           0
     61026 WT5      8357     TIP3     H2       HT       0.417000        1.0080           0
     61027 WT5      8361     TIP3     OH2      OT      -0.834000       15.9994           0
     61028 WT5      8361     TIP3     H1       HT       0.417000        1.0080           0
     61029 WT5      8361     TIP3     H2       HT       0.417000        1.0080           0
     61030 WT5      8364     TIP3     OH2      OT      -0.834000       15.9994           0
     61031 WT5      8364     TIP3     H1       HT       0.417000        1.0080           0
     61032 WT5      8364     TIP3     H2       HT       0.417000        1.0080           0
     61033 WT5      8368     TIP3     OH2      OT      -0.834000       15.9994           0
     61034 WT5      8368     TIP3     H1       HT       0.417000        1.0080           0
     61035 WT5      8368     TIP3     H2       HT       0.417000        1.0080           0
     61036 WT5      8370     TIP3     OH2      OT      -0.834000       15.9994           0
     61037 WT5      8370     TIP3     H1       HT       0.417000        1.0080           0
     61038 WT5      8370     TIP3     H2       HT       0.417000        1.0080           0
     61039 WT5      8375     TIP3     OH2      OT      -0.834000       15.9994           0
     61040 WT5      8375     TIP3     H1       HT       0.417000        1.0080           0
     61041 WT5      8375     TIP3     H2       HT       0.417000        1.0080           0
     61042 WT5      8376     TIP3     OH2      OT      -0.834000       15.9994           0
     61043 WT5      8376     TIP3     H1       HT       0.417000        1.0080           0
     61044 WT5      8376     TIP3     H2       HT       0.417000        1.0080           0
     61045 WT5      8383     TIP3     OH2      OT      -0.834000       15.9994           0
     61046 WT5      8383     TIP3     H1       HT       0.417000        1.0080           0
     61047 WT5      8383     TIP3     H2       HT       0.417000        1.0080           0
     61048 WT5      8387     TIP3     OH2      OT      -0.834000       15.9994           0
     61049 WT5      8387     TIP3     H1       HT       0.417000        1.0080           0
     61050 WT5      8387     TIP3     H2       HT       0.417000        1.0080           0
     61051 WT5      8393     TIP3     OH2      OT      -0.834000       15.9994           0
     61052 WT5      8393     TIP3     H1       HT       0.417000        1.0080           0
     61053 WT5      8393     TIP3     H2       HT       0.417000        1.0080           0
     61054 WT5      8394     TIP3     OH2      OT      -0.834000       15.9994           0
     61055 WT5      8394     TIP3     H1       HT       0.417000        1.0080           0
     61056 WT5      8394     TIP3     H2       HT       0.417000        1.0080           0
     61057 WT5      8395     TIP3     OH2      OT      -0.834000       15.9994           0
     61058 WT5      8395     TIP3     H1       HT       0.417000        1.0080           0
     61059 WT5      8395     TIP3     H2       HT       0.417000        1.0080           0
     61060 WT5      8400     TIP3     OH2      OT      -0.834000       15.9994           0
     61061 WT5      8400     TIP3     H1       HT       0.417000        1.0080           0
     61062 WT5      8400     TIP3     H2       HT       0.417000        1.0080           0
     61063 WT5      8403     TIP3     OH2      OT      -0.834000       15.9994           0
     61064 WT5      8403     TIP3     H1       HT       0.417000        1.0080           0
     61065 WT5      8403     TIP3     H2       HT       0.417000        1.0080           0
     61066 WT5      8408     TIP3     OH2      OT      -0.834000       15.9994           0
     61067 WT5      8408     TIP3     H1       HT       0.417000        1.0080           0
     61068 WT5      8408     TIP3     H2       HT       0.417000        1.0080           0
     61069 WT5      8411     TIP3     OH2      OT      -0.834000       15.9994           0
     61070 WT5      8411     TIP3     H1       HT       0.417000        1.0080           0
     61071 WT5      8411     TIP3     H2       HT       0.417000        1.0080           0
     61072 WT5      8412     TIP3     OH2      OT      -0.834000       15.9994           0
     61073 WT5      8412     TIP3     H1       HT       0.417000        1.0080           0
     61074 WT5      8412     TIP3     H2       HT       0.417000        1.0080           0
     61075 WT5      8414     TIP3     OH2      OT      -0.834000       15.9994           0
     61076 WT5      8414     TIP3     H1       HT       0.417000        1.0080           0
     61077 WT5      8414     TIP3     H2       HT       0.417000        1.0080           0
     61078 WT5      8415     TIP3     OH2      OT      -0.834000       15.9994           0
     61079 WT5      8415     TIP3     H1       HT       0.417000        1.0080           0
     61080 WT5      8415     TIP3     H2       HT       0.417000        1.0080           0
     61081 WT5      8419     TIP3     OH2      OT      -0.834000       15.9994           0
     61082 WT5      8419     TIP3     H1       HT       0.417000        1.0080           0
     61083 WT5      8419     TIP3     H2       HT       0.417000        1.0080           0
     61084 WT5      8420     TIP3     OH2      OT      -0.834000       15.9994           0
     61085 WT5      8420     TIP3     H1       HT       0.417000        1.0080           0
     61086 WT5      8420     TIP3     H2       HT       0.417000        1.0080           0
     61087 WT5      8423     TIP3     OH2      OT      -0.834000       15.9994           0
     61088 WT5      8423     TIP3     H1       HT       0.417000        1.0080           0
     61089 WT5      8423     TIP3     H2       HT       0.417000        1.0080           0
     61090 WT5      8425     TIP3     OH2      OT      -0.834000       15.9994           0
     61091 WT5      8425     TIP3     H1       HT       0.417000        1.0080           0
     61092 WT5      8425     TIP3     H2       HT       0.417000        1.0080           0
     61093 WT5      8437     TIP3     OH2      OT      -0.834000       15.9994           0
     61094 WT5      8437     TIP3     H1       HT       0.417000        1.0080           0
     61095 WT5      8437     TIP3     H2       HT       0.417000        1.0080           0
     61096 WT5      8440     TIP3     OH2      OT      -0.834000       15.9994           0
     61097 WT5      8440     TIP3     H1       HT       0.417000        1.0080           0
     61098 WT5      8440     TIP3     H2       HT       0.417000        1.0080           0
     61099 WT5      8441     TIP3     OH2      OT      -0.834000       15.9994           0
     61100 WT5      8441     TIP3     H1       HT       0.417000        1.0080           0
     61101 WT5      8441     TIP3     H2       HT       0.417000        1.0080           0
     61102 WT5      8443     TIP3     OH2      OT      -0.834000       15.9994           0
     61103 WT5      8443     TIP3     H1       HT       0.417000        1.0080           0
     61104 WT5      8443     TIP3     H2       HT       0.417000        1.0080           0
     61105 WT5      8448     TIP3     OH2      OT      -0.834000       15.9994           0
     61106 WT5      8448     TIP3     H1       HT       0.417000        1.0080           0
     61107 WT5      8448     TIP3     H2       HT       0.417000        1.0080           0
     61108 WT5      8452     TIP3     OH2      OT      -0.834000       15.9994           0
     61109 WT5      8452     TIP3     H1       HT       0.417000        1.0080           0
     61110 WT5      8452     TIP3     H2       HT       0.417000        1.0080           0
     61111 WT5      8457     TIP3     OH2      OT      -0.834000       15.9994           0
     61112 WT5      8457     TIP3     H1       HT       0.417000        1.0080           0
     61113 WT5      8457     TIP3     H2       HT       0.417000        1.0080           0
     61114 WT5      8459     TIP3     OH2      OT      -0.834000       15.9994           0
     61115 WT5      8459     TIP3     H1       HT       0.417000        1.0080           0
     61116 WT5      8459     TIP3     H2       HT       0.417000        1.0080           0
     61117 WT5      8466     TIP3     OH2      OT      -0.834000       15.9994           0
     61118 WT5      8466     TIP3     H1       HT       0.417000        1.0080           0
     61119 WT5      8466     TIP3     H2       HT       0.417000        1.0080           0
     61120 WT5      8467     TIP3     OH2      OT      -0.834000       15.9994           0
     61121 WT5      8467     TIP3     H1       HT       0.417000        1.0080           0
     61122 WT5      8467     TIP3     H2       HT       0.417000        1.0080           0
     61123 WT5      8468     TIP3     OH2      OT      -0.834000       15.9994           0
     61124 WT5      8468     TIP3     H1       HT       0.417000        1.0080           0
     61125 WT5      8468     TIP3     H2       HT       0.417000        1.0080           0
     61126 WT5      8488     TIP3     OH2      OT      -0.834000       15.9994           0
     61127 WT5      8488     TIP3     H1       HT       0.417000        1.0080           0
     61128 WT5      8488     TIP3     H2       HT       0.417000        1.0080           0
     61129 WT5      8491     TIP3     OH2      OT      -0.834000       15.9994           0
     61130 WT5      8491     TIP3     H1       HT       0.417000        1.0080           0
     61131 WT5      8491     TIP3     H2       HT       0.417000        1.0080           0
     61132 WT5      8492     TIP3     OH2      OT      -0.834000       15.9994           0
     61133 WT5      8492     TIP3     H1       HT       0.417000        1.0080           0
     61134 WT5      8492     TIP3     H2       HT       0.417000        1.0080           0
     61135 WT5      8500     TIP3     OH2      OT      -0.834000       15.9994           0
     61136 WT5      8500     TIP3     H1       HT       0.417000        1.0080           0
     61137 WT5      8500     TIP3     H2       HT       0.417000        1.0080           0
     61138 WT5      8518     TIP3     OH2      OT      -0.834000       15.9994           0
     61139 WT5      8518     TIP3     H1       HT       0.417000        1.0080           0
     61140 WT5      8518     TIP3     H2       HT       0.417000        1.0080           0
     61141 WT5      8520     TIP3     OH2      OT      -0.834000       15.9994           0
     61142 WT5      8520     TIP3     H1       HT       0.417000        1.0080           0
     61143 WT5      8520     TIP3     H2       HT       0.417000        1.0080           0
     61144 WT5      8528     TIP3     OH2      OT      -0.834000       15.9994           0
     61145 WT5      8528     TIP3     H1       HT       0.417000        1.0080           0
     61146 WT5      8528     TIP3     H2       HT       0.417000        1.0080           0
     61147 WT5      8534     TIP3     OH2      OT      -0.834000       15.9994           0
     61148 WT5      8534     TIP3     H1       HT       0.417000        1.0080           0
     61149 WT5      8534     TIP3     H2       HT       0.417000        1.0080           0
     61150 WT5      8536     TIP3     OH2      OT      -0.834000       15.9994           0
     61151 WT5      8536     TIP3     H1       HT       0.417000        1.0080           0
     61152 WT5      8536     TIP3     H2       HT       0.417000        1.0080           0
     61153 WT5      8537     TIP3     OH2      OT      -0.834000       15.9994           0
     61154 WT5      8537     TIP3     H1       HT       0.417000        1.0080           0
     61155 WT5      8537     TIP3     H2       HT       0.417000        1.0080           0
     61156 WT5      8548     TIP3     OH2      OT      -0.834000       15.9994           0
     61157 WT5      8548     TIP3     H1       HT       0.417000        1.0080           0
     61158 WT5      8548     TIP3     H2       HT       0.417000        1.0080           0
     61159 WT5      8549     TIP3     OH2      OT      -0.834000       15.9994           0
     61160 WT5      8549     TIP3     H1       HT       0.417000        1.0080           0
     61161 WT5      8549     TIP3     H2       HT       0.417000        1.0080           0
     61162 WT5      8551     TIP3     OH2      OT      -0.834000       15.9994           0
     61163 WT5      8551     TIP3     H1       HT       0.417000        1.0080           0
     61164 WT5      8551     TIP3     H2       HT       0.417000        1.0080           0
     61165 WT5      8555     TIP3     OH2      OT      -0.834000       15.9994           0
     61166 WT5      8555     TIP3     H1       HT       0.417000        1.0080           0
     61167 WT5      8555     TIP3     H2       HT       0.417000        1.0080           0
     61168 WT5      8556     TIP3     OH2      OT      -0.834000       15.9994           0
     61169 WT5      8556     TIP3     H1       HT       0.417000        1.0080           0
     61170 WT5      8556     TIP3     H2       HT       0.417000        1.0080           0
     61171 WT5      8558     TIP3     OH2      OT      -0.834000       15.9994           0
     61172 WT5      8558     TIP3     H1       HT       0.417000        1.0080           0
     61173 WT5      8558     TIP3     H2       HT       0.417000        1.0080           0
     61174 WT5      8560     TIP3     OH2      OT      -0.834000       15.9994           0
     61175 WT5      8560     TIP3     H1       HT       0.417000        1.0080           0
     61176 WT5      8560     TIP3     H2       HT       0.417000        1.0080           0
     61177 WT5      8561     TIP3     OH2      OT      -0.834000       15.9994           0
     61178 WT5      8561     TIP3     H1       HT       0.417000        1.0080           0
     61179 WT5      8561     TIP3     H2       HT       0.417000        1.0080           0
     61180 WT5      8566     TIP3     OH2      OT      -0.834000       15.9994           0
     61181 WT5      8566     TIP3     H1       HT       0.417000        1.0080           0
     61182 WT5      8566     TIP3     H2       HT       0.417000        1.0080           0
     61183 WT5      8567     TIP3     OH2      OT      -0.834000       15.9994           0
     61184 WT5      8567     TIP3     H1       HT       0.417000        1.0080           0
     61185 WT5      8567     TIP3     H2       HT       0.417000        1.0080           0
     61186 WT5      8570     TIP3     OH2      OT      -0.834000       15.9994           0
     61187 WT5      8570     TIP3     H1       HT       0.417000        1.0080           0
     61188 WT5      8570     TIP3     H2       HT       0.417000        1.0080           0
     61189 WT5      8574     TIP3     OH2      OT      -0.834000       15.9994           0
     61190 WT5      8574     TIP3     H1       HT       0.417000        1.0080           0
     61191 WT5      8574     TIP3     H2       HT       0.417000        1.0080           0
     61192 WT5      8576     TIP3     OH2      OT      -0.834000       15.9994           0
     61193 WT5      8576     TIP3     H1       HT       0.417000        1.0080           0
     61194 WT5      8576     TIP3     H2       HT       0.417000        1.0080           0
     61195 WT5      8578     TIP3     OH2      OT      -0.834000       15.9994           0
     61196 WT5      8578     TIP3     H1       HT       0.417000        1.0080           0
     61197 WT5      8578     TIP3     H2       HT       0.417000        1.0080           0
     61198 WT5      8579     TIP3     OH2      OT      -0.834000       15.9994           0
     61199 WT5      8579     TIP3     H1       HT       0.417000        1.0080           0
     61200 WT5      8579     TIP3     H2       HT       0.417000        1.0080           0
     61201 WT5      8585     TIP3     OH2      OT      -0.834000       15.9994           0
     61202 WT5      8585     TIP3     H1       HT       0.417000        1.0080           0
     61203 WT5      8585     TIP3     H2       HT       0.417000        1.0080           0
     61204 WT5      8589     TIP3     OH2      OT      -0.834000       15.9994           0
     61205 WT5      8589     TIP3     H1       HT       0.417000        1.0080           0
     61206 WT5      8589     TIP3     H2       HT       0.417000        1.0080           0
     61207 WT5      8600     TIP3     OH2      OT      -0.834000       15.9994           0
     61208 WT5      8600     TIP3     H1       HT       0.417000        1.0080           0
     61209 WT5      8600     TIP3     H2       HT       0.417000        1.0080           0
     61210 WT5      8607     TIP3     OH2      OT      -0.834000       15.9994           0
     61211 WT5      8607     TIP3     H1       HT       0.417000        1.0080           0
     61212 WT5      8607     TIP3     H2       HT       0.417000        1.0080           0
     61213 WT5      8608     TIP3     OH2      OT      -0.834000       15.9994           0
     61214 WT5      8608     TIP3     H1       HT       0.417000        1.0080           0
     61215 WT5      8608     TIP3     H2       HT       0.417000        1.0080           0
     61216 WT5      8613     TIP3     OH2      OT      -0.834000       15.9994           0
     61217 WT5      8613     TIP3     H1       HT       0.417000        1.0080           0
     61218 WT5      8613     TIP3     H2       HT       0.417000        1.0080           0
     61219 WT5      8617     TIP3     OH2      OT      -0.834000       15.9994           0
     61220 WT5      8617     TIP3     H1       HT       0.417000        1.0080           0
     61221 WT5      8617     TIP3     H2       HT       0.417000        1.0080           0
     61222 WT5      8622     TIP3     OH2      OT      -0.834000       15.9994           0
     61223 WT5      8622     TIP3     H1       HT       0.417000        1.0080           0
     61224 WT5      8622     TIP3     H2       HT       0.417000        1.0080           0
     61225 WT5      8624     TIP3     OH2      OT      -0.834000       15.9994           0
     61226 WT5      8624     TIP3     H1       HT       0.417000        1.0080           0
     61227 WT5      8624     TIP3     H2       HT       0.417000        1.0080           0
     61228 WT5      8626     TIP3     OH2      OT      -0.834000       15.9994           0
     61229 WT5      8626     TIP3     H1       HT       0.417000        1.0080           0
     61230 WT5      8626     TIP3     H2       HT       0.417000        1.0080           0
     61231 WT5      8635     TIP3     OH2      OT      -0.834000       15.9994           0
     61232 WT5      8635     TIP3     H1       HT       0.417000        1.0080           0
     61233 WT5      8635     TIP3     H2       HT       0.417000        1.0080           0
     61234 WT5      8642     TIP3     OH2      OT      -0.834000       15.9994           0
     61235 WT5      8642     TIP3     H1       HT       0.417000        1.0080           0
     61236 WT5      8642     TIP3     H2       HT       0.417000        1.0080           0
     61237 WT5      8645     TIP3     OH2      OT      -0.834000       15.9994           0
     61238 WT5      8645     TIP3     H1       HT       0.417000        1.0080           0
     61239 WT5      8645     TIP3     H2       HT       0.417000        1.0080           0
     61240 WT5      8653     TIP3     OH2      OT      -0.834000       15.9994           0
     61241 WT5      8653     TIP3     H1       HT       0.417000        1.0080           0
     61242 WT5      8653     TIP3     H2       HT       0.417000        1.0080           0
     61243 WT5      8658     TIP3     OH2      OT      -0.834000       15.9994           0
     61244 WT5      8658     TIP3     H1       HT       0.417000        1.0080           0
     61245 WT5      8658     TIP3     H2       HT       0.417000        1.0080           0
     61246 WT5      8661     TIP3     OH2      OT      -0.834000       15.9994           0
     61247 WT5      8661     TIP3     H1       HT       0.417000        1.0080           0
     61248 WT5      8661     TIP3     H2       HT       0.417000        1.0080           0
     61249 WT5      8662     TIP3     OH2      OT      -0.834000       15.9994           0
     61250 WT5      8662     TIP3     H1       HT       0.417000        1.0080           0
     61251 WT5      8662     TIP3     H2       HT       0.417000        1.0080           0
     61252 WT5      8666     TIP3     OH2      OT      -0.834000       15.9994           0
     61253 WT5      8666     TIP3     H1       HT       0.417000        1.0080           0
     61254 WT5      8666     TIP3     H2       HT       0.417000        1.0080           0
     61255 WT5      8668     TIP3     OH2      OT      -0.834000       15.9994           0
     61256 WT5      8668     TIP3     H1       HT       0.417000        1.0080           0
     61257 WT5      8668     TIP3     H2       HT       0.417000        1.0080           0
     61258 WT5      8673     TIP3     OH2      OT      -0.834000       15.9994           0
     61259 WT5      8673     TIP3     H1       HT       0.417000        1.0080           0
     61260 WT5      8673     TIP3     H2       HT       0.417000        1.0080           0
     61261 WT5      8675     TIP3     OH2      OT      -0.834000       15.9994           0
     61262 WT5      8675     TIP3     H1       HT       0.417000        1.0080           0
     61263 WT5      8675     TIP3     H2       HT       0.417000        1.0080           0
     61264 WT5      8677     TIP3     OH2      OT      -0.834000       15.9994           0
     61265 WT5      8677     TIP3     H1       HT       0.417000        1.0080           0
     61266 WT5      8677     TIP3     H2       HT       0.417000        1.0080           0
     61267 WT5      8679     TIP3     OH2      OT      -0.834000       15.9994           0
     61268 WT5      8679     TIP3     H1       HT       0.417000        1.0080           0
     61269 WT5      8679     TIP3     H2       HT       0.417000        1.0080           0
     61270 WT5      8680     TIP3     OH2      OT      -0.834000       15.9994           0
     61271 WT5      8680     TIP3     H1       HT       0.417000        1.0080           0
     61272 WT5      8680     TIP3     H2       HT       0.417000        1.0080           0
     61273 WT5      8683     TIP3     OH2      OT      -0.834000       15.9994           0
     61274 WT5      8683     TIP3     H1       HT       0.417000        1.0080           0
     61275 WT5      8683     TIP3     H2       HT       0.417000        1.0080           0
     61276 WT5      8687     TIP3     OH2      OT      -0.834000       15.9994           0
     61277 WT5      8687     TIP3     H1       HT       0.417000        1.0080           0
     61278 WT5      8687     TIP3     H2       HT       0.417000        1.0080           0
     61279 WT5      8688     TIP3     OH2      OT      -0.834000       15.9994           0
     61280 WT5      8688     TIP3     H1       HT       0.417000        1.0080           0
     61281 WT5      8688     TIP3     H2       HT       0.417000        1.0080           0
     61282 WT5      8690     TIP3     OH2      OT      -0.834000       15.9994           0
     61283 WT5      8690     TIP3     H1       HT       0.417000        1.0080           0
     61284 WT5      8690     TIP3     H2       HT       0.417000        1.0080           0
     61285 WT5      8691     TIP3     OH2      OT      -0.834000       15.9994           0
     61286 WT5      8691     TIP3     H1       HT       0.417000        1.0080           0
     61287 WT5      8691     TIP3     H2       HT       0.417000        1.0080           0
     61288 WT5      8695     TIP3     OH2      OT      -0.834000       15.9994           0
     61289 WT5      8695     TIP3     H1       HT       0.417000        1.0080           0
     61290 WT5      8695     TIP3     H2       HT       0.417000        1.0080           0
     61291 WT5      8699     TIP3     OH2      OT      -0.834000       15.9994           0
     61292 WT5      8699     TIP3     H1       HT       0.417000        1.0080           0
     61293 WT5      8699     TIP3     H2       HT       0.417000        1.0080           0
     61294 WT5      8701     TIP3     OH2      OT      -0.834000       15.9994           0
     61295 WT5      8701     TIP3     H1       HT       0.417000        1.0080           0
     61296 WT5      8701     TIP3     H2       HT       0.417000        1.0080           0
     61297 WT5      8709     TIP3     OH2      OT      -0.834000       15.9994           0
     61298 WT5      8709     TIP3     H1       HT       0.417000        1.0080           0
     61299 WT5      8709     TIP3     H2       HT       0.417000        1.0080           0
     61300 WT5      8711     TIP3     OH2      OT      -0.834000       15.9994           0
     61301 WT5      8711     TIP3     H1       HT       0.417000        1.0080           0
     61302 WT5      8711     TIP3     H2       HT       0.417000        1.0080           0
     61303 WT5      8713     TIP3     OH2      OT      -0.834000       15.9994           0
     61304 WT5      8713     TIP3     H1       HT       0.417000        1.0080           0
     61305 WT5      8713     TIP3     H2       HT       0.417000        1.0080           0
     61306 WT5      8721     TIP3     OH2      OT      -0.834000       15.9994           0
     61307 WT5      8721     TIP3     H1       HT       0.417000        1.0080           0
     61308 WT5      8721     TIP3     H2       HT       0.417000        1.0080           0
     61309 WT5      8722     TIP3     OH2      OT      -0.834000       15.9994           0
     61310 WT5      8722     TIP3     H1       HT       0.417000        1.0080           0
     61311 WT5      8722     TIP3     H2       HT       0.417000        1.0080           0
     61312 WT5      8723     TIP3     OH2      OT      -0.834000       15.9994           0
     61313 WT5      8723     TIP3     H1       HT       0.417000        1.0080           0
     61314 WT5      8723     TIP3     H2       HT       0.417000        1.0080           0
     61315 WT5      8724     TIP3     OH2      OT      -0.834000       15.9994           0
     61316 WT5      8724     TIP3     H1       HT       0.417000        1.0080           0
     61317 WT5      8724     TIP3     H2       HT       0.417000        1.0080           0
     61318 WT5      8726     TIP3     OH2      OT      -0.834000       15.9994           0
     61319 WT5      8726     TIP3     H1       HT       0.417000        1.0080           0
     61320 WT5      8726     TIP3     H2       HT       0.417000        1.0080           0
     61321 WT5      8727     TIP3     OH2      OT      -0.834000       15.9994           0
     61322 WT5      8727     TIP3     H1       HT       0.417000        1.0080           0
     61323 WT5      8727     TIP3     H2       HT       0.417000        1.0080           0
     61324 WT5      8732     TIP3     OH2      OT      -0.834000       15.9994           0
     61325 WT5      8732     TIP3     H1       HT       0.417000        1.0080           0
     61326 WT5      8732     TIP3     H2       HT       0.417000        1.0080           0
     61327 WT5      8748     TIP3     OH2      OT      -0.834000       15.9994           0
     61328 WT5      8748     TIP3     H1       HT       0.417000        1.0080           0
     61329 WT5      8748     TIP3     H2       HT       0.417000        1.0080           0
     61330 WT5      8756     TIP3     OH2      OT      -0.834000       15.9994           0
     61331 WT5      8756     TIP3     H1       HT       0.417000        1.0080           0
     61332 WT5      8756     TIP3     H2       HT       0.417000        1.0080           0
     61333 WT5      8760     TIP3     OH2      OT      -0.834000       15.9994           0
     61334 WT5      8760     TIP3     H1       HT       0.417000        1.0080           0
     61335 WT5      8760     TIP3     H2       HT       0.417000        1.0080           0
     61336 WT5      8761     TIP3     OH2      OT      -0.834000       15.9994           0
     61337 WT5      8761     TIP3     H1       HT       0.417000        1.0080           0
     61338 WT5      8761     TIP3     H2       HT       0.417000        1.0080           0
     61339 WT5      8769     TIP3     OH2      OT      -0.834000       15.9994           0
     61340 WT5      8769     TIP3     H1       HT       0.417000        1.0080           0
     61341 WT5      8769     TIP3     H2       HT       0.417000        1.0080           0
     61342 WT5      8771     TIP3     OH2      OT      -0.834000       15.9994           0
     61343 WT5      8771     TIP3     H1       HT       0.417000        1.0080           0
     61344 WT5      8771     TIP3     H2       HT       0.417000        1.0080           0
     61345 WT5      8774     TIP3     OH2      OT      -0.834000       15.9994           0
     61346 WT5      8774     TIP3     H1       HT       0.417000        1.0080           0
     61347 WT5      8774     TIP3     H2       HT       0.417000        1.0080           0
     61348 WT5      8780     TIP3     OH2      OT      -0.834000       15.9994           0
     61349 WT5      8780     TIP3     H1       HT       0.417000        1.0080           0
     61350 WT5      8780     TIP3     H2       HT       0.417000        1.0080           0
     61351 WT5      8784     TIP3     OH2      OT      -0.834000       15.9994           0
     61352 WT5      8784     TIP3     H1       HT       0.417000        1.0080           0
     61353 WT5      8784     TIP3     H2       HT       0.417000        1.0080           0
     61354 WT5      8791     TIP3     OH2      OT      -0.834000       15.9994           0
     61355 WT5      8791     TIP3     H1       HT       0.417000        1.0080           0
     61356 WT5      8791     TIP3     H2       HT       0.417000        1.0080           0
     61357 WT5      8793     TIP3     OH2      OT      -0.834000       15.9994           0
     61358 WT5      8793     TIP3     H1       HT       0.417000        1.0080           0
     61359 WT5      8793     TIP3     H2       HT       0.417000        1.0080           0
     61360 WT5      8794     TIP3     OH2      OT      -0.834000       15.9994           0
     61361 WT5      8794     TIP3     H1       HT       0.417000        1.0080           0
     61362 WT5      8794     TIP3     H2       HT       0.417000        1.0080           0
     61363 WT5      8796     TIP3     OH2      OT      -0.834000       15.9994           0
     61364 WT5      8796     TIP3     H1       HT       0.417000        1.0080           0
     61365 WT5      8796     TIP3     H2       HT       0.417000        1.0080           0
     61366 WT5      8798     TIP3     OH2      OT      -0.834000       15.9994           0
     61367 WT5      8798     TIP3     H1       HT       0.417000        1.0080           0
     61368 WT5      8798     TIP3     H2       HT       0.417000        1.0080           0
     61369 WT5      8800     TIP3     OH2      OT      -0.834000       15.9994           0
     61370 WT5      8800     TIP3     H1       HT       0.417000        1.0080           0
     61371 WT5      8800     TIP3     H2       HT       0.417000        1.0080           0
     61372 WT5      8801     TIP3     OH2      OT      -0.834000       15.9994           0
     61373 WT5      8801     TIP3     H1       HT       0.417000        1.0080           0
     61374 WT5      8801     TIP3     H2       HT       0.417000        1.0080           0
     61375 WT5      8809     TIP3     OH2      OT      -0.834000       15.9994           0
     61376 WT5      8809     TIP3     H1       HT       0.417000        1.0080           0
     61377 WT5      8809     TIP3     H2       HT       0.417000        1.0080           0
     61378 WT5      8813     TIP3     OH2      OT      -0.834000       15.9994           0
     61379 WT5      8813     TIP3     H1       HT       0.417000        1.0080           0
     61380 WT5      8813     TIP3     H2       HT       0.417000        1.0080           0
     61381 WT5      8822     TIP3     OH2      OT      -0.834000       15.9994           0
     61382 WT5      8822     TIP3     H1       HT       0.417000        1.0080           0
     61383 WT5      8822     TIP3     H2       HT       0.417000        1.0080           0
     61384 WT5      8824     TIP3     OH2      OT      -0.834000       15.9994           0
     61385 WT5      8824     TIP3     H1       HT       0.417000        1.0080           0
     61386 WT5      8824     TIP3     H2       HT       0.417000        1.0080           0
     61387 WT5      8826     TIP3     OH2      OT      -0.834000       15.9994           0
     61388 WT5      8826     TIP3     H1       HT       0.417000        1.0080           0
     61389 WT5      8826     TIP3     H2       HT       0.417000        1.0080           0
     61390 WT5      8829     TIP3     OH2      OT      -0.834000       15.9994           0
     61391 WT5      8829     TIP3     H1       HT       0.417000        1.0080           0
     61392 WT5      8829     TIP3     H2       HT       0.417000        1.0080           0
     61393 WT5      8833     TIP3     OH2      OT      -0.834000       15.9994           0
     61394 WT5      8833     TIP3     H1       HT       0.417000        1.0080           0
     61395 WT5      8833     TIP3     H2       HT       0.417000        1.0080           0
     61396 WT5      8836     TIP3     OH2      OT      -0.834000       15.9994           0
     61397 WT5      8836     TIP3     H1       HT       0.417000        1.0080           0
     61398 WT5      8836     TIP3     H2       HT       0.417000        1.0080           0
     61399 WT5      8841     TIP3     OH2      OT      -0.834000       15.9994           0
     61400 WT5      8841     TIP3     H1       HT       0.417000        1.0080           0
     61401 WT5      8841     TIP3     H2       HT       0.417000        1.0080           0
     61402 WT5      8843     TIP3     OH2      OT      -0.834000       15.9994           0
     61403 WT5      8843     TIP3     H1       HT       0.417000        1.0080           0
     61404 WT5      8843     TIP3     H2       HT       0.417000        1.0080           0
     61405 WT5      8845     TIP3     OH2      OT      -0.834000       15.9994           0
     61406 WT5      8845     TIP3     H1       HT       0.417000        1.0080           0
     61407 WT5      8845     TIP3     H2       HT       0.417000        1.0080           0
     61408 WT5      8848     TIP3     OH2      OT      -0.834000       15.9994           0
     61409 WT5      8848     TIP3     H1       HT       0.417000        1.0080           0
     61410 WT5      8848     TIP3     H2       HT       0.417000        1.0080           0
     61411 WT5      8851     TIP3     OH2      OT      -0.834000       15.9994           0
     61412 WT5      8851     TIP3     H1       HT       0.417000        1.0080           0
     61413 WT5      8851     TIP3     H2       HT       0.417000        1.0080           0
     61414 WT5      8852     TIP3     OH2      OT      -0.834000       15.9994           0
     61415 WT5      8852     TIP3     H1       HT       0.417000        1.0080           0
     61416 WT5      8852     TIP3     H2       HT       0.417000        1.0080           0
     61417 WT5      8855     TIP3     OH2      OT      -0.834000       15.9994           0
     61418 WT5      8855     TIP3     H1       HT       0.417000        1.0080           0
     61419 WT5      8855     TIP3     H2       HT       0.417000        1.0080           0
     61420 WT5      8857     TIP3     OH2      OT      -0.834000       15.9994           0
     61421 WT5      8857     TIP3     H1       HT       0.417000        1.0080           0
     61422 WT5      8857     TIP3     H2       HT       0.417000        1.0080           0
     61423 WT5      8860     TIP3     OH2      OT      -0.834000       15.9994           0
     61424 WT5      8860     TIP3     H1       HT       0.417000        1.0080           0
     61425 WT5      8860     TIP3     H2       HT       0.417000        1.0080           0
     61426 WT5      8864     TIP3     OH2      OT      -0.834000       15.9994           0
     61427 WT5      8864     TIP3     H1       HT       0.417000        1.0080           0
     61428 WT5      8864     TIP3     H2       HT       0.417000        1.0080           0
     61429 WT5      8865     TIP3     OH2      OT      -0.834000       15.9994           0
     61430 WT5      8865     TIP3     H1       HT       0.417000        1.0080           0
     61431 WT5      8865     TIP3     H2       HT       0.417000        1.0080           0
     61432 WT5      8869     TIP3     OH2      OT      -0.834000       15.9994           0
     61433 WT5      8869     TIP3     H1       HT       0.417000        1.0080           0
     61434 WT5      8869     TIP3     H2       HT       0.417000        1.0080           0
     61435 WT5      8870     TIP3     OH2      OT      -0.834000       15.9994           0
     61436 WT5      8870     TIP3     H1       HT       0.417000        1.0080           0
     61437 WT5      8870     TIP3     H2       HT       0.417000        1.0080           0
     61438 WT5      8872     TIP3     OH2      OT      -0.834000       15.9994           0
     61439 WT5      8872     TIP3     H1       HT       0.417000        1.0080           0
     61440 WT5      8872     TIP3     H2       HT       0.417000        1.0080           0
     61441 WT5      8876     TIP3     OH2      OT      -0.834000       15.9994           0
     61442 WT5      8876     TIP3     H1       HT       0.417000        1.0080           0
     61443 WT5      8876     TIP3     H2       HT       0.417000        1.0080           0
     61444 WT5      8877     TIP3     OH2      OT      -0.834000       15.9994           0
     61445 WT5      8877     TIP3     H1       HT       0.417000        1.0080           0
     61446 WT5      8877     TIP3     H2       HT       0.417000        1.0080           0
     61447 WT5      8879     TIP3     OH2      OT      -0.834000       15.9994           0
     61448 WT5      8879     TIP3     H1       HT       0.417000        1.0080           0
     61449 WT5      8879     TIP3     H2       HT       0.417000        1.0080           0
     61450 WT5      8887     TIP3     OH2      OT      -0.834000       15.9994           0
     61451 WT5      8887     TIP3     H1       HT       0.417000        1.0080           0
     61452 WT5      8887     TIP3     H2       HT       0.417000        1.0080           0
     61453 WT5      8890     TIP3     OH2      OT      -0.834000       15.9994           0
     61454 WT5      8890     TIP3     H1       HT       0.417000        1.0080           0
     61455 WT5      8890     TIP3     H2       HT       0.417000        1.0080           0
     61456 WT5      8892     TIP3     OH2      OT      -0.834000       15.9994           0
     61457 WT5      8892     TIP3     H1       HT       0.417000        1.0080           0
     61458 WT5      8892     TIP3     H2       HT       0.417000        1.0080           0
     61459 WT5      8893     TIP3     OH2      OT      -0.834000       15.9994           0
     61460 WT5      8893     TIP3     H1       HT       0.417000        1.0080           0
     61461 WT5      8893     TIP3     H2       HT       0.417000        1.0080           0
     61462 WT5      8894     TIP3     OH2      OT      -0.834000       15.9994           0
     61463 WT5      8894     TIP3     H1       HT       0.417000        1.0080           0
     61464 WT5      8894     TIP3     H2       HT       0.417000        1.0080           0
     61465 WT5      8895     TIP3     OH2      OT      -0.834000       15.9994           0
     61466 WT5      8895     TIP3     H1       HT       0.417000        1.0080           0
     61467 WT5      8895     TIP3     H2       HT       0.417000        1.0080           0
     61468 WT5      8896     TIP3     OH2      OT      -0.834000       15.9994           0
     61469 WT5      8896     TIP3     H1       HT       0.417000        1.0080           0
     61470 WT5      8896     TIP3     H2       HT       0.417000        1.0080           0
     61471 WT5      8898     TIP3     OH2      OT      -0.834000       15.9994           0
     61472 WT5      8898     TIP3     H1       HT       0.417000        1.0080           0
     61473 WT5      8898     TIP3     H2       HT       0.417000        1.0080           0
     61474 WT5      8899     TIP3     OH2      OT      -0.834000       15.9994           0
     61475 WT5      8899     TIP3     H1       HT       0.417000        1.0080           0
     61476 WT5      8899     TIP3     H2       HT       0.417000        1.0080           0
     61477 WT5      8902     TIP3     OH2      OT      -0.834000       15.9994           0
     61478 WT5      8902     TIP3     H1       HT       0.417000        1.0080           0
     61479 WT5      8902     TIP3     H2       HT       0.417000        1.0080           0
     61480 WT5      8903     TIP3     OH2      OT      -0.834000       15.9994           0
     61481 WT5      8903     TIP3     H1       HT       0.417000        1.0080           0
     61482 WT5      8903     TIP3     H2       HT       0.417000        1.0080           0
     61483 WT5      8904     TIP3     OH2      OT      -0.834000       15.9994           0
     61484 WT5      8904     TIP3     H1       HT       0.417000        1.0080           0
     61485 WT5      8904     TIP3     H2       HT       0.417000        1.0080           0
     61486 WT5      8905     TIP3     OH2      OT      -0.834000       15.9994           0
     61487 WT5      8905     TIP3     H1       HT       0.417000        1.0080           0
     61488 WT5      8905     TIP3     H2       HT       0.417000        1.0080           0
     61489 WT5      8906     TIP3     OH2      OT      -0.834000       15.9994           0
     61490 WT5      8906     TIP3     H1       HT       0.417000        1.0080           0
     61491 WT5      8906     TIP3     H2       HT       0.417000        1.0080           0
     61492 WT5      8908     TIP3     OH2      OT      -0.834000       15.9994           0
     61493 WT5      8908     TIP3     H1       HT       0.417000        1.0080           0
     61494 WT5      8908     TIP3     H2       HT       0.417000        1.0080           0
     61495 WT5      8916     TIP3     OH2      OT      -0.834000       15.9994           0
     61496 WT5      8916     TIP3     H1       HT       0.417000        1.0080           0
     61497 WT5      8916     TIP3     H2       HT       0.417000        1.0080           0
     61498 WT5      8918     TIP3     OH2      OT      -0.834000       15.9994           0
     61499 WT5      8918     TIP3     H1       HT       0.417000        1.0080           0
     61500 WT5      8918     TIP3     H2       HT       0.417000        1.0080           0
     61501 WT5      8920     TIP3     OH2      OT      -0.834000       15.9994           0
     61502 WT5      8920     TIP3     H1       HT       0.417000        1.0080           0
     61503 WT5      8920     TIP3     H2       HT       0.417000        1.0080           0
     61504 WT5      8922     TIP3     OH2      OT      -0.834000       15.9994           0
     61505 WT5      8922     TIP3     H1       HT       0.417000        1.0080           0
     61506 WT5      8922     TIP3     H2       HT       0.417000        1.0080           0
     61507 WT5      8923     TIP3     OH2      OT      -0.834000       15.9994           0
     61508 WT5      8923     TIP3     H1       HT       0.417000        1.0080           0
     61509 WT5      8923     TIP3     H2       HT       0.417000        1.0080           0
     61510 WT5      8926     TIP3     OH2      OT      -0.834000       15.9994           0
     61511 WT5      8926     TIP3     H1       HT       0.417000        1.0080           0
     61512 WT5      8926     TIP3     H2       HT       0.417000        1.0080           0
     61513 WT5      8927     TIP3     OH2      OT      -0.834000       15.9994           0
     61514 WT5      8927     TIP3     H1       HT       0.417000        1.0080           0
     61515 WT5      8927     TIP3     H2       HT       0.417000        1.0080           0
     61516 WT5      8928     TIP3     OH2      OT      -0.834000       15.9994           0
     61517 WT5      8928     TIP3     H1       HT       0.417000        1.0080           0
     61518 WT5      8928     TIP3     H2       HT       0.417000        1.0080           0
     61519 WT5      8931     TIP3     OH2      OT      -0.834000       15.9994           0
     61520 WT5      8931     TIP3     H1       HT       0.417000        1.0080           0
     61521 WT5      8931     TIP3     H2       HT       0.417000        1.0080           0
     61522 WT5      8932     TIP3     OH2      OT      -0.834000       15.9994           0
     61523 WT5      8932     TIP3     H1       HT       0.417000        1.0080           0
     61524 WT5      8932     TIP3     H2       HT       0.417000        1.0080           0
     61525 WT5      8935     TIP3     OH2      OT      -0.834000       15.9994           0
     61526 WT5      8935     TIP3     H1       HT       0.417000        1.0080           0
     61527 WT5      8935     TIP3     H2       HT       0.417000        1.0080           0
     61528 WT5      8936     TIP3     OH2      OT      -0.834000       15.9994           0
     61529 WT5      8936     TIP3     H1       HT       0.417000        1.0080           0
     61530 WT5      8936     TIP3     H2       HT       0.417000        1.0080           0
     61531 WT5      8937     TIP3     OH2      OT      -0.834000       15.9994           0
     61532 WT5      8937     TIP3     H1       HT       0.417000        1.0080           0
     61533 WT5      8937     TIP3     H2       HT       0.417000        1.0080           0
     61534 WT5      8938     TIP3     OH2      OT      -0.834000       15.9994           0
     61535 WT5      8938     TIP3     H1       HT       0.417000        1.0080           0
     61536 WT5      8938     TIP3     H2       HT       0.417000        1.0080           0
     61537 WT5      8939     TIP3     OH2      OT      -0.834000       15.9994           0
     61538 WT5      8939     TIP3     H1       HT       0.417000        1.0080           0
     61539 WT5      8939     TIP3     H2       HT       0.417000        1.0080           0
     61540 WT5      8940     TIP3     OH2      OT      -0.834000       15.9994           0
     61541 WT5      8940     TIP3     H1       HT       0.417000        1.0080           0
     61542 WT5      8940     TIP3     H2       HT       0.417000        1.0080           0
     61543 WT5      8942     TIP3     OH2      OT      -0.834000       15.9994           0
     61544 WT5      8942     TIP3     H1       HT       0.417000        1.0080           0
     61545 WT5      8942     TIP3     H2       HT       0.417000        1.0080           0
     61546 WT5      8947     TIP3     OH2      OT      -0.834000       15.9994           0
     61547 WT5      8947     TIP3     H1       HT       0.417000        1.0080           0
     61548 WT5      8947     TIP3     H2       HT       0.417000        1.0080           0
     61549 WT5      8949     TIP3     OH2      OT      -0.834000       15.9994           0
     61550 WT5      8949     TIP3     H1       HT       0.417000        1.0080           0
     61551 WT5      8949     TIP3     H2       HT       0.417000        1.0080           0
     61552 WT5      8952     TIP3     OH2      OT      -0.834000       15.9994           0
     61553 WT5      8952     TIP3     H1       HT       0.417000        1.0080           0
     61554 WT5      8952     TIP3     H2       HT       0.417000        1.0080           0
     61555 WT5      8954     TIP3     OH2      OT      -0.834000       15.9994           0
     61556 WT5      8954     TIP3     H1       HT       0.417000        1.0080           0
     61557 WT5      8954     TIP3     H2       HT       0.417000        1.0080           0
     61558 WT5      8956     TIP3     OH2      OT      -0.834000       15.9994           0
     61559 WT5      8956     TIP3     H1       HT       0.417000        1.0080           0
     61560 WT5      8956     TIP3     H2       HT       0.417000        1.0080           0
     61561 WT5      8959     TIP3     OH2      OT      -0.834000       15.9994           0
     61562 WT5      8959     TIP3     H1       HT       0.417000        1.0080           0
     61563 WT5      8959     TIP3     H2       HT       0.417000        1.0080           0
     61564 WT5      8960     TIP3     OH2      OT      -0.834000       15.9994           0
     61565 WT5      8960     TIP3     H1       HT       0.417000        1.0080           0
     61566 WT5      8960     TIP3     H2       HT       0.417000        1.0080           0
     61567 WT5      8961     TIP3     OH2      OT      -0.834000       15.9994           0
     61568 WT5      8961     TIP3     H1       HT       0.417000        1.0080           0
     61569 WT5      8961     TIP3     H2       HT       0.417000        1.0080           0
     61570 WT5      8962     TIP3     OH2      OT      -0.834000       15.9994           0
     61571 WT5      8962     TIP3     H1       HT       0.417000        1.0080           0
     61572 WT5      8962     TIP3     H2       HT       0.417000        1.0080           0
     61573 WT5      8964     TIP3     OH2      OT      -0.834000       15.9994           0
     61574 WT5      8964     TIP3     H1       HT       0.417000        1.0080           0
     61575 WT5      8964     TIP3     H2       HT       0.417000        1.0080           0
     61576 WT5      8970     TIP3     OH2      OT      -0.834000       15.9994           0
     61577 WT5      8970     TIP3     H1       HT       0.417000        1.0080           0
     61578 WT5      8970     TIP3     H2       HT       0.417000        1.0080           0
     61579 WT5      8972     TIP3     OH2      OT      -0.834000       15.9994           0
     61580 WT5      8972     TIP3     H1       HT       0.417000        1.0080           0
     61581 WT5      8972     TIP3     H2       HT       0.417000        1.0080           0
     61582 WT5      8973     TIP3     OH2      OT      -0.834000       15.9994           0
     61583 WT5      8973     TIP3     H1       HT       0.417000        1.0080           0
     61584 WT5      8973     TIP3     H2       HT       0.417000        1.0080           0
     61585 WT5      8976     TIP3     OH2      OT      -0.834000       15.9994           0
     61586 WT5      8976     TIP3     H1       HT       0.417000        1.0080           0
     61587 WT5      8976     TIP3     H2       HT       0.417000        1.0080           0
     61588 WT5      8977     TIP3     OH2      OT      -0.834000       15.9994           0
     61589 WT5      8977     TIP3     H1       HT       0.417000        1.0080           0
     61590 WT5      8977     TIP3     H2       HT       0.417000        1.0080           0
     61591 WT5      8982     TIP3     OH2      OT      -0.834000       15.9994           0
     61592 WT5      8982     TIP3     H1       HT       0.417000        1.0080           0
     61593 WT5      8982     TIP3     H2       HT       0.417000        1.0080           0
     61594 WT5      8984     TIP3     OH2      OT      -0.834000       15.9994           0
     61595 WT5      8984     TIP3     H1       HT       0.417000        1.0080           0
     61596 WT5      8984     TIP3     H2       HT       0.417000        1.0080           0
     61597 WT5      8988     TIP3     OH2      OT      -0.834000       15.9994           0
     61598 WT5      8988     TIP3     H1       HT       0.417000        1.0080           0
     61599 WT5      8988     TIP3     H2       HT       0.417000        1.0080           0
     61600 WT5      8994     TIP3     OH2      OT      -0.834000       15.9994           0
     61601 WT5      8994     TIP3     H1       HT       0.417000        1.0080           0
     61602 WT5      8994     TIP3     H2       HT       0.417000        1.0080           0
     61603 WT5      9001     TIP3     OH2      OT      -0.834000       15.9994           0
     61604 WT5      9001     TIP3     H1       HT       0.417000        1.0080           0
     61605 WT5      9001     TIP3     H2       HT       0.417000        1.0080           0
     61606 WT5      9004     TIP3     OH2      OT      -0.834000       15.9994           0
     61607 WT5      9004     TIP3     H1       HT       0.417000        1.0080           0
     61608 WT5      9004     TIP3     H2       HT       0.417000        1.0080           0
     61609 WT5      9005     TIP3     OH2      OT      -0.834000       15.9994           0
     61610 WT5      9005     TIP3     H1       HT       0.417000        1.0080           0
     61611 WT5      9005     TIP3     H2       HT       0.417000        1.0080           0
     61612 WT5      9007     TIP3     OH2      OT      -0.834000       15.9994           0
     61613 WT5      9007     TIP3     H1       HT       0.417000        1.0080           0
     61614 WT5      9007     TIP3     H2       HT       0.417000        1.0080           0
     61615 WT5      9012     TIP3     OH2      OT      -0.834000       15.9994           0
     61616 WT5      9012     TIP3     H1       HT       0.417000        1.0080           0
     61617 WT5      9012     TIP3     H2       HT       0.417000        1.0080           0
     61618 WT5      9013     TIP3     OH2      OT      -0.834000       15.9994           0
     61619 WT5      9013     TIP3     H1       HT       0.417000        1.0080           0
     61620 WT5      9013     TIP3     H2       HT       0.417000        1.0080           0
     61621 WT5      9015     TIP3     OH2      OT      -0.834000       15.9994           0
     61622 WT5      9015     TIP3     H1       HT       0.417000        1.0080           0
     61623 WT5      9015     TIP3     H2       HT       0.417000        1.0080           0
     61624 WT5      9017     TIP3     OH2      OT      -0.834000       15.9994           0
     61625 WT5      9017     TIP3     H1       HT       0.417000        1.0080           0
     61626 WT5      9017     TIP3     H2       HT       0.417000        1.0080           0
     61627 WT5      9022     TIP3     OH2      OT      -0.834000       15.9994           0
     61628 WT5      9022     TIP3     H1       HT       0.417000        1.0080           0
     61629 WT5      9022     TIP3     H2       HT       0.417000        1.0080           0
     61630 WT5      9027     TIP3     OH2      OT      -0.834000       15.9994           0
     61631 WT5      9027     TIP3     H1       HT       0.417000        1.0080           0
     61632 WT5      9027     TIP3     H2       HT       0.417000        1.0080           0
     61633 WT5      9029     TIP3     OH2      OT      -0.834000       15.9994           0
     61634 WT5      9029     TIP3     H1       HT       0.417000        1.0080           0
     61635 WT5      9029     TIP3     H2       HT       0.417000        1.0080           0
     61636 WT5      9032     TIP3     OH2      OT      -0.834000       15.9994           0
     61637 WT5      9032     TIP3     H1       HT       0.417000        1.0080           0
     61638 WT5      9032     TIP3     H2       HT       0.417000        1.0080           0
     61639 WT5      9034     TIP3     OH2      OT      -0.834000       15.9994           0
     61640 WT5      9034     TIP3     H1       HT       0.417000        1.0080           0
     61641 WT5      9034     TIP3     H2       HT       0.417000        1.0080           0
     61642 WT5      9035     TIP3     OH2      OT      -0.834000       15.9994           0
     61643 WT5      9035     TIP3     H1       HT       0.417000        1.0080           0
     61644 WT5      9035     TIP3     H2       HT       0.417000        1.0080           0
     61645 WT5      9037     TIP3     OH2      OT      -0.834000       15.9994           0
     61646 WT5      9037     TIP3     H1       HT       0.417000        1.0080           0
     61647 WT5      9037     TIP3     H2       HT       0.417000        1.0080           0
     61648 WT5      9044     TIP3     OH2      OT      -0.834000       15.9994           0
     61649 WT5      9044     TIP3     H1       HT       0.417000        1.0080           0
     61650 WT5      9044     TIP3     H2       HT       0.417000        1.0080           0
     61651 WT5      9047     TIP3     OH2      OT      -0.834000       15.9994           0
     61652 WT5      9047     TIP3     H1       HT       0.417000        1.0080           0
     61653 WT5      9047     TIP3     H2       HT       0.417000        1.0080           0
     61654 WT5      9049     TIP3     OH2      OT      -0.834000       15.9994           0
     61655 WT5      9049     TIP3     H1       HT       0.417000        1.0080           0
     61656 WT5      9049     TIP3     H2       HT       0.417000        1.0080           0
     61657 WT5      9050     TIP3     OH2      OT      -0.834000       15.9994           0
     61658 WT5      9050     TIP3     H1       HT       0.417000        1.0080           0
     61659 WT5      9050     TIP3     H2       HT       0.417000        1.0080           0
     61660 WT5      9054     TIP3     OH2      OT      -0.834000       15.9994           0
     61661 WT5      9054     TIP3     H1       HT       0.417000        1.0080           0
     61662 WT5      9054     TIP3     H2       HT       0.417000        1.0080           0
     61663 WT5      9055     TIP3     OH2      OT      -0.834000       15.9994           0
     61664 WT5      9055     TIP3     H1       HT       0.417000        1.0080           0
     61665 WT5      9055     TIP3     H2       HT       0.417000        1.0080           0
     61666 WT5      9056     TIP3     OH2      OT      -0.834000       15.9994           0
     61667 WT5      9056     TIP3     H1       HT       0.417000        1.0080           0
     61668 WT5      9056     TIP3     H2       HT       0.417000        1.0080           0
     61669 WT5      9057     TIP3     OH2      OT      -0.834000       15.9994           0
     61670 WT5      9057     TIP3     H1       HT       0.417000        1.0080           0
     61671 WT5      9057     TIP3     H2       HT       0.417000        1.0080           0
     61672 WT5      9058     TIP3     OH2      OT      -0.834000       15.9994           0
     61673 WT5      9058     TIP3     H1       HT       0.417000        1.0080           0
     61674 WT5      9058     TIP3     H2       HT       0.417000        1.0080           0
     61675 WT5      9063     TIP3     OH2      OT      -0.834000       15.9994           0
     61676 WT5      9063     TIP3     H1       HT       0.417000        1.0080           0
     61677 WT5      9063     TIP3     H2       HT       0.417000        1.0080           0
     61678 WT5      9064     TIP3     OH2      OT      -0.834000       15.9994           0
     61679 WT5      9064     TIP3     H1       HT       0.417000        1.0080           0
     61680 WT5      9064     TIP3     H2       HT       0.417000        1.0080           0
     61681 WT5      9065     TIP3     OH2      OT      -0.834000       15.9994           0
     61682 WT5      9065     TIP3     H1       HT       0.417000        1.0080           0
     61683 WT5      9065     TIP3     H2       HT       0.417000        1.0080           0
     61684 WT5      9068     TIP3     OH2      OT      -0.834000       15.9994           0
     61685 WT5      9068     TIP3     H1       HT       0.417000        1.0080           0
     61686 WT5      9068     TIP3     H2       HT       0.417000        1.0080           0
     61687 WT5      9071     TIP3     OH2      OT      -0.834000       15.9994           0
     61688 WT5      9071     TIP3     H1       HT       0.417000        1.0080           0
     61689 WT5      9071     TIP3     H2       HT       0.417000        1.0080           0
     61690 WT5      9073     TIP3     OH2      OT      -0.834000       15.9994           0
     61691 WT5      9073     TIP3     H1       HT       0.417000        1.0080           0
     61692 WT5      9073     TIP3     H2       HT       0.417000        1.0080           0
     61693 WT5      9077     TIP3     OH2      OT      -0.834000       15.9994           0
     61694 WT5      9077     TIP3     H1       HT       0.417000        1.0080           0
     61695 WT5      9077     TIP3     H2       HT       0.417000        1.0080           0
     61696 WT5      9079     TIP3     OH2      OT      -0.834000       15.9994           0
     61697 WT5      9079     TIP3     H1       HT       0.417000        1.0080           0
     61698 WT5      9079     TIP3     H2       HT       0.417000        1.0080           0
     61699 WT5      9080     TIP3     OH2      OT      -0.834000       15.9994           0
     61700 WT5      9080     TIP3     H1       HT       0.417000        1.0080           0
     61701 WT5      9080     TIP3     H2       HT       0.417000        1.0080           0
     61702 WT5      9082     TIP3     OH2      OT      -0.834000       15.9994           0
     61703 WT5      9082     TIP3     H1       HT       0.417000        1.0080           0
     61704 WT5      9082     TIP3     H2       HT       0.417000        1.0080           0
     61705 WT5      9084     TIP3     OH2      OT      -0.834000       15.9994           0
     61706 WT5      9084     TIP3     H1       HT       0.417000        1.0080           0
     61707 WT5      9084     TIP3     H2       HT       0.417000        1.0080           0
     61708 WT5      9085     TIP3     OH2      OT      -0.834000       15.9994           0
     61709 WT5      9085     TIP3     H1       HT       0.417000        1.0080           0
     61710 WT5      9085     TIP3     H2       HT       0.417000        1.0080           0
     61711 WT5      9091     TIP3     OH2      OT      -0.834000       15.9994           0
     61712 WT5      9091     TIP3     H1       HT       0.417000        1.0080           0
     61713 WT5      9091     TIP3     H2       HT       0.417000        1.0080           0
     61714 WT5      9093     TIP3     OH2      OT      -0.834000       15.9994           0
     61715 WT5      9093     TIP3     H1       HT       0.417000        1.0080           0
     61716 WT5      9093     TIP3     H2       HT       0.417000        1.0080           0
     61717 WT5      9095     TIP3     OH2      OT      -0.834000       15.9994           0
     61718 WT5      9095     TIP3     H1       HT       0.417000        1.0080           0
     61719 WT5      9095     TIP3     H2       HT       0.417000        1.0080           0
     61720 WT5      9096     TIP3     OH2      OT      -0.834000       15.9994           0
     61721 WT5      9096     TIP3     H1       HT       0.417000        1.0080           0
     61722 WT5      9096     TIP3     H2       HT       0.417000        1.0080           0
     61723 WT5      9097     TIP3     OH2      OT      -0.834000       15.9994           0
     61724 WT5      9097     TIP3     H1       HT       0.417000        1.0080           0
     61725 WT5      9097     TIP3     H2       HT       0.417000        1.0080           0
     61726 WT5      9102     TIP3     OH2      OT      -0.834000       15.9994           0
     61727 WT5      9102     TIP3     H1       HT       0.417000        1.0080           0
     61728 WT5      9102     TIP3     H2       HT       0.417000        1.0080           0
     61729 WT5      9105     TIP3     OH2      OT      -0.834000       15.9994           0
     61730 WT5      9105     TIP3     H1       HT       0.417000        1.0080           0
     61731 WT5      9105     TIP3     H2       HT       0.417000        1.0080           0
     61732 WT5      9106     TIP3     OH2      OT      -0.834000       15.9994           0
     61733 WT5      9106     TIP3     H1       HT       0.417000        1.0080           0
     61734 WT5      9106     TIP3     H2       HT       0.417000        1.0080           0
     61735 WT5      9108     TIP3     OH2      OT      -0.834000       15.9994           0
     61736 WT5      9108     TIP3     H1       HT       0.417000        1.0080           0
     61737 WT5      9108     TIP3     H2       HT       0.417000        1.0080           0
     61738 WT5      9109     TIP3     OH2      OT      -0.834000       15.9994           0
     61739 WT5      9109     TIP3     H1       HT       0.417000        1.0080           0
     61740 WT5      9109     TIP3     H2       HT       0.417000        1.0080           0
     61741 WT5      9115     TIP3     OH2      OT      -0.834000       15.9994           0
     61742 WT5      9115     TIP3     H1       HT       0.417000        1.0080           0
     61743 WT5      9115     TIP3     H2       HT       0.417000        1.0080           0
     61744 WT5      9116     TIP3     OH2      OT      -0.834000       15.9994           0
     61745 WT5      9116     TIP3     H1       HT       0.417000        1.0080           0
     61746 WT5      9116     TIP3     H2       HT       0.417000        1.0080           0
     61747 WT5      9118     TIP3     OH2      OT      -0.834000       15.9994           0
     61748 WT5      9118     TIP3     H1       HT       0.417000        1.0080           0
     61749 WT5      9118     TIP3     H2       HT       0.417000        1.0080           0
     61750 WT5      9124     TIP3     OH2      OT      -0.834000       15.9994           0
     61751 WT5      9124     TIP3     H1       HT       0.417000        1.0080           0
     61752 WT5      9124     TIP3     H2       HT       0.417000        1.0080           0
     61753 WT5      9125     TIP3     OH2      OT      -0.834000       15.9994           0
     61754 WT5      9125     TIP3     H1       HT       0.417000        1.0080           0
     61755 WT5      9125     TIP3     H2       HT       0.417000        1.0080           0
     61756 WT5      9127     TIP3     OH2      OT      -0.834000       15.9994           0
     61757 WT5      9127     TIP3     H1       HT       0.417000        1.0080           0
     61758 WT5      9127     TIP3     H2       HT       0.417000        1.0080           0
     61759 WT5      9128     TIP3     OH2      OT      -0.834000       15.9994           0
     61760 WT5      9128     TIP3     H1       HT       0.417000        1.0080           0
     61761 WT5      9128     TIP3     H2       HT       0.417000        1.0080           0
     61762 WT5      9129     TIP3     OH2      OT      -0.834000       15.9994           0
     61763 WT5      9129     TIP3     H1       HT       0.417000        1.0080           0
     61764 WT5      9129     TIP3     H2       HT       0.417000        1.0080           0
     61765 WT5      9132     TIP3     OH2      OT      -0.834000       15.9994           0
     61766 WT5      9132     TIP3     H1       HT       0.417000        1.0080           0
     61767 WT5      9132     TIP3     H2       HT       0.417000        1.0080           0
     61768 WT5      9133     TIP3     OH2      OT      -0.834000       15.9994           0
     61769 WT5      9133     TIP3     H1       HT       0.417000        1.0080           0
     61770 WT5      9133     TIP3     H2       HT       0.417000        1.0080           0
     61771 WT5      9134     TIP3     OH2      OT      -0.834000       15.9994           0
     61772 WT5      9134     TIP3     H1       HT       0.417000        1.0080           0
     61773 WT5      9134     TIP3     H2       HT       0.417000        1.0080           0
     61774 WT5      9135     TIP3     OH2      OT      -0.834000       15.9994           0
     61775 WT5      9135     TIP3     H1       HT       0.417000        1.0080           0
     61776 WT5      9135     TIP3     H2       HT       0.417000        1.0080           0
     61777 WT5      9136     TIP3     OH2      OT      -0.834000       15.9994           0
     61778 WT5      9136     TIP3     H1       HT       0.417000        1.0080           0
     61779 WT5      9136     TIP3     H2       HT       0.417000        1.0080           0
     61780 WT5      9142     TIP3     OH2      OT      -0.834000       15.9994           0
     61781 WT5      9142     TIP3     H1       HT       0.417000        1.0080           0
     61782 WT5      9142     TIP3     H2       HT       0.417000        1.0080           0
     61783 WT5      9143     TIP3     OH2      OT      -0.834000       15.9994           0
     61784 WT5      9143     TIP3     H1       HT       0.417000        1.0080           0
     61785 WT5      9143     TIP3     H2       HT       0.417000        1.0080           0
     61786 WT5      9144     TIP3     OH2      OT      -0.834000       15.9994           0
     61787 WT5      9144     TIP3     H1       HT       0.417000        1.0080           0
     61788 WT5      9144     TIP3     H2       HT       0.417000        1.0080           0
     61789 WT5      9145     TIP3     OH2      OT      -0.834000       15.9994           0
     61790 WT5      9145     TIP3     H1       HT       0.417000        1.0080           0
     61791 WT5      9145     TIP3     H2       HT       0.417000        1.0080           0
     61792 WT5      9157     TIP3     OH2      OT      -0.834000       15.9994           0
     61793 WT5      9157     TIP3     H1       HT       0.417000        1.0080           0
     61794 WT5      9157     TIP3     H2       HT       0.417000        1.0080           0
     61795 WT5      9158     TIP3     OH2      OT      -0.834000       15.9994           0
     61796 WT5      9158     TIP3     H1       HT       0.417000        1.0080           0
     61797 WT5      9158     TIP3     H2       HT       0.417000        1.0080           0
     61798 WT5      9161     TIP3     OH2      OT      -0.834000       15.9994           0
     61799 WT5      9161     TIP3     H1       HT       0.417000        1.0080           0
     61800 WT5      9161     TIP3     H2       HT       0.417000        1.0080           0
     61801 WT5      9162     TIP3     OH2      OT      -0.834000       15.9994           0
     61802 WT5      9162     TIP3     H1       HT       0.417000        1.0080           0
     61803 WT5      9162     TIP3     H2       HT       0.417000        1.0080           0
     61804 WT5      9165     TIP3     OH2      OT      -0.834000       15.9994           0
     61805 WT5      9165     TIP3     H1       HT       0.417000        1.0080           0
     61806 WT5      9165     TIP3     H2       HT       0.417000        1.0080           0
     61807 WT5      9171     TIP3     OH2      OT      -0.834000       15.9994           0
     61808 WT5      9171     TIP3     H1       HT       0.417000        1.0080           0
     61809 WT5      9171     TIP3     H2       HT       0.417000        1.0080           0
     61810 WT5      9172     TIP3     OH2      OT      -0.834000       15.9994           0
     61811 WT5      9172     TIP3     H1       HT       0.417000        1.0080           0
     61812 WT5      9172     TIP3     H2       HT       0.417000        1.0080           0
     61813 WT5      9174     TIP3     OH2      OT      -0.834000       15.9994           0
     61814 WT5      9174     TIP3     H1       HT       0.417000        1.0080           0
     61815 WT5      9174     TIP3     H2       HT       0.417000        1.0080           0
     61816 WT5      9176     TIP3     OH2      OT      -0.834000       15.9994           0
     61817 WT5      9176     TIP3     H1       HT       0.417000        1.0080           0
     61818 WT5      9176     TIP3     H2       HT       0.417000        1.0080           0
     61819 WT5      9178     TIP3     OH2      OT      -0.834000       15.9994           0
     61820 WT5      9178     TIP3     H1       HT       0.417000        1.0080           0
     61821 WT5      9178     TIP3     H2       HT       0.417000        1.0080           0
     61822 WT5      9179     TIP3     OH2      OT      -0.834000       15.9994           0
     61823 WT5      9179     TIP3     H1       HT       0.417000        1.0080           0
     61824 WT5      9179     TIP3     H2       HT       0.417000        1.0080           0
     61825 WT5      9180     TIP3     OH2      OT      -0.834000       15.9994           0
     61826 WT5      9180     TIP3     H1       HT       0.417000        1.0080           0
     61827 WT5      9180     TIP3     H2       HT       0.417000        1.0080           0
     61828 WT5      9181     TIP3     OH2      OT      -0.834000       15.9994           0
     61829 WT5      9181     TIP3     H1       HT       0.417000        1.0080           0
     61830 WT5      9181     TIP3     H2       HT       0.417000        1.0080           0
     61831 WT5      9182     TIP3     OH2      OT      -0.834000       15.9994           0
     61832 WT5      9182     TIP3     H1       HT       0.417000        1.0080           0
     61833 WT5      9182     TIP3     H2       HT       0.417000        1.0080           0
     61834 WT5      9183     TIP3     OH2      OT      -0.834000       15.9994           0
     61835 WT5      9183     TIP3     H1       HT       0.417000        1.0080           0
     61836 WT5      9183     TIP3     H2       HT       0.417000        1.0080           0
     61837 WT5      9184     TIP3     OH2      OT      -0.834000       15.9994           0
     61838 WT5      9184     TIP3     H1       HT       0.417000        1.0080           0
     61839 WT5      9184     TIP3     H2       HT       0.417000        1.0080           0
     61840 WT5      9185     TIP3     OH2      OT      -0.834000       15.9994           0
     61841 WT5      9185     TIP3     H1       HT       0.417000        1.0080           0
     61842 WT5      9185     TIP3     H2       HT       0.417000        1.0080           0
     61843 WT5      9186     TIP3     OH2      OT      -0.834000       15.9994           0
     61844 WT5      9186     TIP3     H1       HT       0.417000        1.0080           0
     61845 WT5      9186     TIP3     H2       HT       0.417000        1.0080           0
     61846 WT5      9187     TIP3     OH2      OT      -0.834000       15.9994           0
     61847 WT5      9187     TIP3     H1       HT       0.417000        1.0080           0
     61848 WT5      9187     TIP3     H2       HT       0.417000        1.0080           0
     61849 WT5      9188     TIP3     OH2      OT      -0.834000       15.9994           0
     61850 WT5      9188     TIP3     H1       HT       0.417000        1.0080           0
     61851 WT5      9188     TIP3     H2       HT       0.417000        1.0080           0
     61852 WT5      9189     TIP3     OH2      OT      -0.834000       15.9994           0
     61853 WT5      9189     TIP3     H1       HT       0.417000        1.0080           0
     61854 WT5      9189     TIP3     H2       HT       0.417000        1.0080           0
     61855 WT5      9192     TIP3     OH2      OT      -0.834000       15.9994           0
     61856 WT5      9192     TIP3     H1       HT       0.417000        1.0080           0
     61857 WT5      9192     TIP3     H2       HT       0.417000        1.0080           0
     61858 WT5      9196     TIP3     OH2      OT      -0.834000       15.9994           0
     61859 WT5      9196     TIP3     H1       HT       0.417000        1.0080           0
     61860 WT5      9196     TIP3     H2       HT       0.417000        1.0080           0
     61861 WT5      9197     TIP3     OH2      OT      -0.834000       15.9994           0
     61862 WT5      9197     TIP3     H1       HT       0.417000        1.0080           0
     61863 WT5      9197     TIP3     H2       HT       0.417000        1.0080           0
     61864 WT5      9198     TIP3     OH2      OT      -0.834000       15.9994           0
     61865 WT5      9198     TIP3     H1       HT       0.417000        1.0080           0
     61866 WT5      9198     TIP3     H2       HT       0.417000        1.0080           0
     61867 WT5      9199     TIP3     OH2      OT      -0.834000       15.9994           0
     61868 WT5      9199     TIP3     H1       HT       0.417000        1.0080           0
     61869 WT5      9199     TIP3     H2       HT       0.417000        1.0080           0
     61870 WT5      9206     TIP3     OH2      OT      -0.834000       15.9994           0
     61871 WT5      9206     TIP3     H1       HT       0.417000        1.0080           0
     61872 WT5      9206     TIP3     H2       HT       0.417000        1.0080           0
     61873 WT5      9211     TIP3     OH2      OT      -0.834000       15.9994           0
     61874 WT5      9211     TIP3     H1       HT       0.417000        1.0080           0
     61875 WT5      9211     TIP3     H2       HT       0.417000        1.0080           0
     61876 WT5      9212     TIP3     OH2      OT      -0.834000       15.9994           0
     61877 WT5      9212     TIP3     H1       HT       0.417000        1.0080           0
     61878 WT5      9212     TIP3     H2       HT       0.417000        1.0080           0
     61879 WT5      9218     TIP3     OH2      OT      -0.834000       15.9994           0
     61880 WT5      9218     TIP3     H1       HT       0.417000        1.0080           0
     61881 WT5      9218     TIP3     H2       HT       0.417000        1.0080           0
     61882 WT5      9222     TIP3     OH2      OT      -0.834000       15.9994           0
     61883 WT5      9222     TIP3     H1       HT       0.417000        1.0080           0
     61884 WT5      9222     TIP3     H2       HT       0.417000        1.0080           0
     61885 WT5      9223     TIP3     OH2      OT      -0.834000       15.9994           0
     61886 WT5      9223     TIP3     H1       HT       0.417000        1.0080           0
     61887 WT5      9223     TIP3     H2       HT       0.417000        1.0080           0
     61888 WT5      9225     TIP3     OH2      OT      -0.834000       15.9994           0
     61889 WT5      9225     TIP3     H1       HT       0.417000        1.0080           0
     61890 WT5      9225     TIP3     H2       HT       0.417000        1.0080           0
     61891 WT5      9226     TIP3     OH2      OT      -0.834000       15.9994           0
     61892 WT5      9226     TIP3     H1       HT       0.417000        1.0080           0
     61893 WT5      9226     TIP3     H2       HT       0.417000        1.0080           0
     61894 WT5      9227     TIP3     OH2      OT      -0.834000       15.9994           0
     61895 WT5      9227     TIP3     H1       HT       0.417000        1.0080           0
     61896 WT5      9227     TIP3     H2       HT       0.417000        1.0080           0
     61897 WT5      9228     TIP3     OH2      OT      -0.834000       15.9994           0
     61898 WT5      9228     TIP3     H1       HT       0.417000        1.0080           0
     61899 WT5      9228     TIP3     H2       HT       0.417000        1.0080           0
     61900 WT5      9229     TIP3     OH2      OT      -0.834000       15.9994           0
     61901 WT5      9229     TIP3     H1       HT       0.417000        1.0080           0
     61902 WT5      9229     TIP3     H2       HT       0.417000        1.0080           0
     61903 WT5      9232     TIP3     OH2      OT      -0.834000       15.9994           0
     61904 WT5      9232     TIP3     H1       HT       0.417000        1.0080           0
     61905 WT5      9232     TIP3     H2       HT       0.417000        1.0080           0
     61906 WT5      9234     TIP3     OH2      OT      -0.834000       15.9994           0
     61907 WT5      9234     TIP3     H1       HT       0.417000        1.0080           0
     61908 WT5      9234     TIP3     H2       HT       0.417000        1.0080           0
     61909 WT5      9235     TIP3     OH2      OT      -0.834000       15.9994           0
     61910 WT5      9235     TIP3     H1       HT       0.417000        1.0080           0
     61911 WT5      9235     TIP3     H2       HT       0.417000        1.0080           0
     61912 WT5      9238     TIP3     OH2      OT      -0.834000       15.9994           0
     61913 WT5      9238     TIP3     H1       HT       0.417000        1.0080           0
     61914 WT5      9238     TIP3     H2       HT       0.417000        1.0080           0
     61915 WT5      9241     TIP3     OH2      OT      -0.834000       15.9994           0
     61916 WT5      9241     TIP3     H1       HT       0.417000        1.0080           0
     61917 WT5      9241     TIP3     H2       HT       0.417000        1.0080           0
     61918 WT5      9244     TIP3     OH2      OT      -0.834000       15.9994           0
     61919 WT5      9244     TIP3     H1       HT       0.417000        1.0080           0
     61920 WT5      9244     TIP3     H2       HT       0.417000        1.0080           0
     61921 WT5      9250     TIP3     OH2      OT      -0.834000       15.9994           0
     61922 WT5      9250     TIP3     H1       HT       0.417000        1.0080           0
     61923 WT5      9250     TIP3     H2       HT       0.417000        1.0080           0
     61924 WT5      9251     TIP3     OH2      OT      -0.834000       15.9994           0
     61925 WT5      9251     TIP3     H1       HT       0.417000        1.0080           0
     61926 WT5      9251     TIP3     H2       HT       0.417000        1.0080           0
     61927 WT5      9254     TIP3     OH2      OT      -0.834000       15.9994           0
     61928 WT5      9254     TIP3     H1       HT       0.417000        1.0080           0
     61929 WT5      9254     TIP3     H2       HT       0.417000        1.0080           0
     61930 WT5      9256     TIP3     OH2      OT      -0.834000       15.9994           0
     61931 WT5      9256     TIP3     H1       HT       0.417000        1.0080           0
     61932 WT5      9256     TIP3     H2       HT       0.417000        1.0080           0
     61933 WT5      9259     TIP3     OH2      OT      -0.834000       15.9994           0
     61934 WT5      9259     TIP3     H1       HT       0.417000        1.0080           0
     61935 WT5      9259     TIP3     H2       HT       0.417000        1.0080           0
     61936 WT6      2        TIP3     OH2      OT      -0.834000       15.9994           0
     61937 WT6      2        TIP3     H1       HT       0.417000        1.0080           0
     61938 WT6      2        TIP3     H2       HT       0.417000        1.0080           0
     61939 WT6      3        TIP3     OH2      OT      -0.834000       15.9994           0
     61940 WT6      3        TIP3     H1       HT       0.417000        1.0080           0
     61941 WT6      3        TIP3     H2       HT       0.417000        1.0080           0
     61942 WT6      5        TIP3     OH2      OT      -0.834000       15.9994           0
     61943 WT6      5        TIP3     H1       HT       0.417000        1.0080           0
     61944 WT6      5        TIP3     H2       HT       0.417000        1.0080           0
     61945 WT6      7        TIP3     OH2      OT      -0.834000       15.9994           0
     61946 WT6      7        TIP3     H1       HT       0.417000        1.0080           0
     61947 WT6      7        TIP3     H2       HT       0.417000        1.0080           0
     61948 WT6      21       TIP3     OH2      OT      -0.834000       15.9994           0
     61949 WT6      21       TIP3     H1       HT       0.417000        1.0080           0
     61950 WT6      21       TIP3     H2       HT       0.417000        1.0080           0
     61951 WT6      29       TIP3     OH2      OT      -0.834000       15.9994           0
     61952 WT6      29       TIP3     H1       HT       0.417000        1.0080           0
     61953 WT6      29       TIP3     H2       HT       0.417000        1.0080           0
     61954 WT6      36       TIP3     OH2      OT      -0.834000       15.9994           0
     61955 WT6      36       TIP3     H1       HT       0.417000        1.0080           0
     61956 WT6      36       TIP3     H2       HT       0.417000        1.0080           0
     61957 WT6      40       TIP3     OH2      OT      -0.834000       15.9994           0
     61958 WT6      40       TIP3     H1       HT       0.417000        1.0080           0
     61959 WT6      40       TIP3     H2       HT       0.417000        1.0080           0
     61960 WT6      44       TIP3     OH2      OT      -0.834000       15.9994           0
     61961 WT6      44       TIP3     H1       HT       0.417000        1.0080           0
     61962 WT6      44       TIP3     H2       HT       0.417000        1.0080           0
     61963 WT6      46       TIP3     OH2      OT      -0.834000       15.9994           0
     61964 WT6      46       TIP3     H1       HT       0.417000        1.0080           0
     61965 WT6      46       TIP3     H2       HT       0.417000        1.0080           0
     61966 WT6      47       TIP3     OH2      OT      -0.834000       15.9994           0
     61967 WT6      47       TIP3     H1       HT       0.417000        1.0080           0
     61968 WT6      47       TIP3     H2       HT       0.417000        1.0080           0
     61969 WT6      48       TIP3     OH2      OT      -0.834000       15.9994           0
     61970 WT6      48       TIP3     H1       HT       0.417000        1.0080           0
     61971 WT6      48       TIP3     H2       HT       0.417000        1.0080           0
     61972 WT6      49       TIP3     OH2      OT      -0.834000       15.9994           0
     61973 WT6      49       TIP3     H1       HT       0.417000        1.0080           0
     61974 WT6      49       TIP3     H2       HT       0.417000        1.0080           0
     61975 WT6      52       TIP3     OH2      OT      -0.834000       15.9994           0
     61976 WT6      52       TIP3     H1       HT       0.417000        1.0080           0
     61977 WT6      52       TIP3     H2       HT       0.417000        1.0080           0
     61978 WT6      64       TIP3     OH2      OT      -0.834000       15.9994           0
     61979 WT6      64       TIP3     H1       HT       0.417000        1.0080           0
     61980 WT6      64       TIP3     H2       HT       0.417000        1.0080           0
     61981 WT6      65       TIP3     OH2      OT      -0.834000       15.9994           0
     61982 WT6      65       TIP3     H1       HT       0.417000        1.0080           0
     61983 WT6      65       TIP3     H2       HT       0.417000        1.0080           0
     61984 WT6      67       TIP3     OH2      OT      -0.834000       15.9994           0
     61985 WT6      67       TIP3     H1       HT       0.417000        1.0080           0
     61986 WT6      67       TIP3     H2       HT       0.417000        1.0080           0
     61987 WT6      68       TIP3     OH2      OT      -0.834000       15.9994           0
     61988 WT6      68       TIP3     H1       HT       0.417000        1.0080           0
     61989 WT6      68       TIP3     H2       HT       0.417000        1.0080           0
     61990 WT6      85       TIP3     OH2      OT      -0.834000       15.9994           0
     61991 WT6      85       TIP3     H1       HT       0.417000        1.0080           0
     61992 WT6      85       TIP3     H2       HT       0.417000        1.0080           0
     61993 WT6      86       TIP3     OH2      OT      -0.834000       15.9994           0
     61994 WT6      86       TIP3     H1       HT       0.417000        1.0080           0
     61995 WT6      86       TIP3     H2       HT       0.417000        1.0080           0
     61996 WT6      87       TIP3     OH2      OT      -0.834000       15.9994           0
     61997 WT6      87       TIP3     H1       HT       0.417000        1.0080           0
     61998 WT6      87       TIP3     H2       HT       0.417000        1.0080           0
     61999 WT6      88       TIP3     OH2      OT      -0.834000       15.9994           0
     62000 WT6      88       TIP3     H1       HT       0.417000        1.0080           0
     62001 WT6      88       TIP3     H2       HT       0.417000        1.0080           0
     62002 WT6      89       TIP3     OH2      OT      -0.834000       15.9994           0
     62003 WT6      89       TIP3     H1       HT       0.417000        1.0080           0
     62004 WT6      89       TIP3     H2       HT       0.417000        1.0080           0
     62005 WT6      90       TIP3     OH2      OT      -0.834000       15.9994           0
     62006 WT6      90       TIP3     H1       HT       0.417000        1.0080           0
     62007 WT6      90       TIP3     H2       HT       0.417000        1.0080           0
     62008 WT6      94       TIP3     OH2      OT      -0.834000       15.9994           0
     62009 WT6      94       TIP3     H1       HT       0.417000        1.0080           0
     62010 WT6      94       TIP3     H2       HT       0.417000        1.0080           0
     62011 WT6      95       TIP3     OH2      OT      -0.834000       15.9994           0
     62012 WT6      95       TIP3     H1       HT       0.417000        1.0080           0
     62013 WT6      95       TIP3     H2       HT       0.417000        1.0080           0
     62014 WT6      108      TIP3     OH2      OT      -0.834000       15.9994           0
     62015 WT6      108      TIP3     H1       HT       0.417000        1.0080           0
     62016 WT6      108      TIP3     H2       HT       0.417000        1.0080           0
     62017 WT6      111      TIP3     OH2      OT      -0.834000       15.9994           0
     62018 WT6      111      TIP3     H1       HT       0.417000        1.0080           0
     62019 WT6      111      TIP3     H2       HT       0.417000        1.0080           0
     62020 WT6      112      TIP3     OH2      OT      -0.834000       15.9994           0
     62021 WT6      112      TIP3     H1       HT       0.417000        1.0080           0
     62022 WT6      112      TIP3     H2       HT       0.417000        1.0080           0
     62023 WT6      113      TIP3     OH2      OT      -0.834000       15.9994           0
     62024 WT6      113      TIP3     H1       HT       0.417000        1.0080           0
     62025 WT6      113      TIP3     H2       HT       0.417000        1.0080           0
     62026 WT6      115      TIP3     OH2      OT      -0.834000       15.9994           0
     62027 WT6      115      TIP3     H1       HT       0.417000        1.0080           0
     62028 WT6      115      TIP3     H2       HT       0.417000        1.0080           0
     62029 WT6      125      TIP3     OH2      OT      -0.834000       15.9994           0
     62030 WT6      125      TIP3     H1       HT       0.417000        1.0080           0
     62031 WT6      125      TIP3     H2       HT       0.417000        1.0080           0
     62032 WT6      129      TIP3     OH2      OT      -0.834000       15.9994           0
     62033 WT6      129      TIP3     H1       HT       0.417000        1.0080           0
     62034 WT6      129      TIP3     H2       HT       0.417000        1.0080           0
     62035 WT6      130      TIP3     OH2      OT      -0.834000       15.9994           0
     62036 WT6      130      TIP3     H1       HT       0.417000        1.0080           0
     62037 WT6      130      TIP3     H2       HT       0.417000        1.0080           0
     62038 WT6      133      TIP3     OH2      OT      -0.834000       15.9994           0
     62039 WT6      133      TIP3     H1       HT       0.417000        1.0080           0
     62040 WT6      133      TIP3     H2       HT       0.417000        1.0080           0
     62041 WT6      134      TIP3     OH2      OT      -0.834000       15.9994           0
     62042 WT6      134      TIP3     H1       HT       0.417000        1.0080           0
     62043 WT6      134      TIP3     H2       HT       0.417000        1.0080           0
     62044 WT6      145      TIP3     OH2      OT      -0.834000       15.9994           0
     62045 WT6      145      TIP3     H1       HT       0.417000        1.0080           0
     62046 WT6      145      TIP3     H2       HT       0.417000        1.0080           0
     62047 WT6      146      TIP3     OH2      OT      -0.834000       15.9994           0
     62048 WT6      146      TIP3     H1       HT       0.417000        1.0080           0
     62049 WT6      146      TIP3     H2       HT       0.417000        1.0080           0
     62050 WT6      149      TIP3     OH2      OT      -0.834000       15.9994           0
     62051 WT6      149      TIP3     H1       HT       0.417000        1.0080           0
     62052 WT6      149      TIP3     H2       HT       0.417000        1.0080           0
     62053 WT6      150      TIP3     OH2      OT      -0.834000       15.9994           0
     62054 WT6      150      TIP3     H1       HT       0.417000        1.0080           0
     62055 WT6      150      TIP3     H2       HT       0.417000        1.0080           0
     62056 WT6      152      TIP3     OH2      OT      -0.834000       15.9994           0
     62057 WT6      152      TIP3     H1       HT       0.417000        1.0080           0
     62058 WT6      152      TIP3     H2       HT       0.417000        1.0080           0
     62059 WT6      153      TIP3     OH2      OT      -0.834000       15.9994           0
     62060 WT6      153      TIP3     H1       HT       0.417000        1.0080           0
     62061 WT6      153      TIP3     H2       HT       0.417000        1.0080           0
     62062 WT6      167      TIP3     OH2      OT      -0.834000       15.9994           0
     62063 WT6      167      TIP3     H1       HT       0.417000        1.0080           0
     62064 WT6      167      TIP3     H2       HT       0.417000        1.0080           0
     62065 WT6      174      TIP3     OH2      OT      -0.834000       15.9994           0
     62066 WT6      174      TIP3     H1       HT       0.417000        1.0080           0
     62067 WT6      174      TIP3     H2       HT       0.417000        1.0080           0
     62068 WT6      175      TIP3     OH2      OT      -0.834000       15.9994           0
     62069 WT6      175      TIP3     H1       HT       0.417000        1.0080           0
     62070 WT6      175      TIP3     H2       HT       0.417000        1.0080           0
     62071 WT6      178      TIP3     OH2      OT      -0.834000       15.9994           0
     62072 WT6      178      TIP3     H1       HT       0.417000        1.0080           0
     62073 WT6      178      TIP3     H2       HT       0.417000        1.0080           0
     62074 WT6      189      TIP3     OH2      OT      -0.834000       15.9994           0
     62075 WT6      189      TIP3     H1       HT       0.417000        1.0080           0
     62076 WT6      189      TIP3     H2       HT       0.417000        1.0080           0
     62077 WT6      190      TIP3     OH2      OT      -0.834000       15.9994           0
     62078 WT6      190      TIP3     H1       HT       0.417000        1.0080           0
     62079 WT6      190      TIP3     H2       HT       0.417000        1.0080           0
     62080 WT6      191      TIP3     OH2      OT      -0.834000       15.9994           0
     62081 WT6      191      TIP3     H1       HT       0.417000        1.0080           0
     62082 WT6      191      TIP3     H2       HT       0.417000        1.0080           0
     62083 WT6      194      TIP3     OH2      OT      -0.834000       15.9994           0
     62084 WT6      194      TIP3     H1       HT       0.417000        1.0080           0
     62085 WT6      194      TIP3     H2       HT       0.417000        1.0080           0
     62086 WT6      195      TIP3     OH2      OT      -0.834000       15.9994           0
     62087 WT6      195      TIP3     H1       HT       0.417000        1.0080           0
     62088 WT6      195      TIP3     H2       HT       0.417000        1.0080           0
     62089 WT6      196      TIP3     OH2      OT      -0.834000       15.9994           0
     62090 WT6      196      TIP3     H1       HT       0.417000        1.0080           0
     62091 WT6      196      TIP3     H2       HT       0.417000        1.0080           0
     62092 WT6      212      TIP3     OH2      OT      -0.834000       15.9994           0
     62093 WT6      212      TIP3     H1       HT       0.417000        1.0080           0
     62094 WT6      212      TIP3     H2       HT       0.417000        1.0080           0
     62095 WT6      218      TIP3     OH2      OT      -0.834000       15.9994           0
     62096 WT6      218      TIP3     H1       HT       0.417000        1.0080           0
     62097 WT6      218      TIP3     H2       HT       0.417000        1.0080           0
     62098 WT6      237      TIP3     OH2      OT      -0.834000       15.9994           0
     62099 WT6      237      TIP3     H1       HT       0.417000        1.0080           0
     62100 WT6      237      TIP3     H2       HT       0.417000        1.0080           0
     62101 WT6      239      TIP3     OH2      OT      -0.834000       15.9994           0
     62102 WT6      239      TIP3     H1       HT       0.417000        1.0080           0
     62103 WT6      239      TIP3     H2       HT       0.417000        1.0080           0
     62104 WT6      252      TIP3     OH2      OT      -0.834000       15.9994           0
     62105 WT6      252      TIP3     H1       HT       0.417000        1.0080           0
     62106 WT6      252      TIP3     H2       HT       0.417000        1.0080           0
     62107 WT6      253      TIP3     OH2      OT      -0.834000       15.9994           0
     62108 WT6      253      TIP3     H1       HT       0.417000        1.0080           0
     62109 WT6      253      TIP3     H2       HT       0.417000        1.0080           0
     62110 WT6      255      TIP3     OH2      OT      -0.834000       15.9994           0
     62111 WT6      255      TIP3     H1       HT       0.417000        1.0080           0
     62112 WT6      255      TIP3     H2       HT       0.417000        1.0080           0
     62113 WT6      257      TIP3     OH2      OT      -0.834000       15.9994           0
     62114 WT6      257      TIP3     H1       HT       0.417000        1.0080           0
     62115 WT6      257      TIP3     H2       HT       0.417000        1.0080           0
     62116 WT6      258      TIP3     OH2      OT      -0.834000       15.9994           0
     62117 WT6      258      TIP3     H1       HT       0.417000        1.0080           0
     62118 WT6      258      TIP3     H2       HT       0.417000        1.0080           0
     62119 WT6      262      TIP3     OH2      OT      -0.834000       15.9994           0
     62120 WT6      262      TIP3     H1       HT       0.417000        1.0080           0
     62121 WT6      262      TIP3     H2       HT       0.417000        1.0080           0
     62122 WT6      295      TIP3     OH2      OT      -0.834000       15.9994           0
     62123 WT6      295      TIP3     H1       HT       0.417000        1.0080           0
     62124 WT6      295      TIP3     H2       HT       0.417000        1.0080           0
     62125 WT6      302      TIP3     OH2      OT      -0.834000       15.9994           0
     62126 WT6      302      TIP3     H1       HT       0.417000        1.0080           0
     62127 WT6      302      TIP3     H2       HT       0.417000        1.0080           0
     62128 WT6      303      TIP3     OH2      OT      -0.834000       15.9994           0
     62129 WT6      303      TIP3     H1       HT       0.417000        1.0080           0
     62130 WT6      303      TIP3     H2       HT       0.417000        1.0080           0
     62131 WT6      316      TIP3     OH2      OT      -0.834000       15.9994           0
     62132 WT6      316      TIP3     H1       HT       0.417000        1.0080           0
     62133 WT6      316      TIP3     H2       HT       0.417000        1.0080           0
     62134 WT6      317      TIP3     OH2      OT      -0.834000       15.9994           0
     62135 WT6      317      TIP3     H1       HT       0.417000        1.0080           0
     62136 WT6      317      TIP3     H2       HT       0.417000        1.0080           0
     62137 WT6      322      TIP3     OH2      OT      -0.834000       15.9994           0
     62138 WT6      322      TIP3     H1       HT       0.417000        1.0080           0
     62139 WT6      322      TIP3     H2       HT       0.417000        1.0080           0
     62140 WT6      323      TIP3     OH2      OT      -0.834000       15.9994           0
     62141 WT6      323      TIP3     H1       HT       0.417000        1.0080           0
     62142 WT6      323      TIP3     H2       HT       0.417000        1.0080           0
     62143 WT6      335      TIP3     OH2      OT      -0.834000       15.9994           0
     62144 WT6      335      TIP3     H1       HT       0.417000        1.0080           0
     62145 WT6      335      TIP3     H2       HT       0.417000        1.0080           0
     62146 WT6      338      TIP3     OH2      OT      -0.834000       15.9994           0
     62147 WT6      338      TIP3     H1       HT       0.417000        1.0080           0
     62148 WT6      338      TIP3     H2       HT       0.417000        1.0080           0
     62149 WT6      344      TIP3     OH2      OT      -0.834000       15.9994           0
     62150 WT6      344      TIP3     H1       HT       0.417000        1.0080           0
     62151 WT6      344      TIP3     H2       HT       0.417000        1.0080           0
     62152 WT6      362      TIP3     OH2      OT      -0.834000       15.9994           0
     62153 WT6      362      TIP3     H1       HT       0.417000        1.0080           0
     62154 WT6      362      TIP3     H2       HT       0.417000        1.0080           0
     62155 WT6      364      TIP3     OH2      OT      -0.834000       15.9994           0
     62156 WT6      364      TIP3     H1       HT       0.417000        1.0080           0
     62157 WT6      364      TIP3     H2       HT       0.417000        1.0080           0
     62158 WT6      378      TIP3     OH2      OT      -0.834000       15.9994           0
     62159 WT6      378      TIP3     H1       HT       0.417000        1.0080           0
     62160 WT6      378      TIP3     H2       HT       0.417000        1.0080           0
     62161 WT6      384      TIP3     OH2      OT      -0.834000       15.9994           0
     62162 WT6      384      TIP3     H1       HT       0.417000        1.0080           0
     62163 WT6      384      TIP3     H2       HT       0.417000        1.0080           0
     62164 WT6      387      TIP3     OH2      OT      -0.834000       15.9994           0
     62165 WT6      387      TIP3     H1       HT       0.417000        1.0080           0
     62166 WT6      387      TIP3     H2       HT       0.417000        1.0080           0
     62167 WT6      392      TIP3     OH2      OT      -0.834000       15.9994           0
     62168 WT6      392      TIP3     H1       HT       0.417000        1.0080           0
     62169 WT6      392      TIP3     H2       HT       0.417000        1.0080           0
     62170 WT6      401      TIP3     OH2      OT      -0.834000       15.9994           0
     62171 WT6      401      TIP3     H1       HT       0.417000        1.0080           0
     62172 WT6      401      TIP3     H2       HT       0.417000        1.0080           0
     62173 WT6      403      TIP3     OH2      OT      -0.834000       15.9994           0
     62174 WT6      403      TIP3     H1       HT       0.417000        1.0080           0
     62175 WT6      403      TIP3     H2       HT       0.417000        1.0080           0
     62176 WT6      404      TIP3     OH2      OT      -0.834000       15.9994           0
     62177 WT6      404      TIP3     H1       HT       0.417000        1.0080           0
     62178 WT6      404      TIP3     H2       HT       0.417000        1.0080           0
     62179 WT6      416      TIP3     OH2      OT      -0.834000       15.9994           0
     62180 WT6      416      TIP3     H1       HT       0.417000        1.0080           0
     62181 WT6      416      TIP3     H2       HT       0.417000        1.0080           0
     62182 WT6      424      TIP3     OH2      OT      -0.834000       15.9994           0
     62183 WT6      424      TIP3     H1       HT       0.417000        1.0080           0
     62184 WT6      424      TIP3     H2       HT       0.417000        1.0080           0
     62185 WT6      425      TIP3     OH2      OT      -0.834000       15.9994           0
     62186 WT6      425      TIP3     H1       HT       0.417000        1.0080           0
     62187 WT6      425      TIP3     H2       HT       0.417000        1.0080           0
     62188 WT6      427      TIP3     OH2      OT      -0.834000       15.9994           0
     62189 WT6      427      TIP3     H1       HT       0.417000        1.0080           0
     62190 WT6      427      TIP3     H2       HT       0.417000        1.0080           0
     62191 WT6      443      TIP3     OH2      OT      -0.834000       15.9994           0
     62192 WT6      443      TIP3     H1       HT       0.417000        1.0080           0
     62193 WT6      443      TIP3     H2       HT       0.417000        1.0080           0
     62194 WT6      445      TIP3     OH2      OT      -0.834000       15.9994           0
     62195 WT6      445      TIP3     H1       HT       0.417000        1.0080           0
     62196 WT6      445      TIP3     H2       HT       0.417000        1.0080           0
     62197 WT6      446      TIP3     OH2      OT      -0.834000       15.9994           0
     62198 WT6      446      TIP3     H1       HT       0.417000        1.0080           0
     62199 WT6      446      TIP3     H2       HT       0.417000        1.0080           0
     62200 WT6      450      TIP3     OH2      OT      -0.834000       15.9994           0
     62201 WT6      450      TIP3     H1       HT       0.417000        1.0080           0
     62202 WT6      450      TIP3     H2       HT       0.417000        1.0080           0
     62203 WT6      460      TIP3     OH2      OT      -0.834000       15.9994           0
     62204 WT6      460      TIP3     H1       HT       0.417000        1.0080           0
     62205 WT6      460      TIP3     H2       HT       0.417000        1.0080           0
     62206 WT6      465      TIP3     OH2      OT      -0.834000       15.9994           0
     62207 WT6      465      TIP3     H1       HT       0.417000        1.0080           0
     62208 WT6      465      TIP3     H2       HT       0.417000        1.0080           0
     62209 WT6      466      TIP3     OH2      OT      -0.834000       15.9994           0
     62210 WT6      466      TIP3     H1       HT       0.417000        1.0080           0
     62211 WT6      466      TIP3     H2       HT       0.417000        1.0080           0
     62212 WT6      468      TIP3     OH2      OT      -0.834000       15.9994           0
     62213 WT6      468      TIP3     H1       HT       0.417000        1.0080           0
     62214 WT6      468      TIP3     H2       HT       0.417000        1.0080           0
     62215 WT6      469      TIP3     OH2      OT      -0.834000       15.9994           0
     62216 WT6      469      TIP3     H1       HT       0.417000        1.0080           0
     62217 WT6      469      TIP3     H2       HT       0.417000        1.0080           0
     62218 WT6      470      TIP3     OH2      OT      -0.834000       15.9994           0
     62219 WT6      470      TIP3     H1       HT       0.417000        1.0080           0
     62220 WT6      470      TIP3     H2       HT       0.417000        1.0080           0
     62221 WT6      472      TIP3     OH2      OT      -0.834000       15.9994           0
     62222 WT6      472      TIP3     H1       HT       0.417000        1.0080           0
     62223 WT6      472      TIP3     H2       HT       0.417000        1.0080           0
     62224 WT6      483      TIP3     OH2      OT      -0.834000       15.9994           0
     62225 WT6      483      TIP3     H1       HT       0.417000        1.0080           0
     62226 WT6      483      TIP3     H2       HT       0.417000        1.0080           0
     62227 WT6      484      TIP3     OH2      OT      -0.834000       15.9994           0
     62228 WT6      484      TIP3     H1       HT       0.417000        1.0080           0
     62229 WT6      484      TIP3     H2       HT       0.417000        1.0080           0
     62230 WT6      485      TIP3     OH2      OT      -0.834000       15.9994           0
     62231 WT6      485      TIP3     H1       HT       0.417000        1.0080           0
     62232 WT6      485      TIP3     H2       HT       0.417000        1.0080           0
     62233 WT6      486      TIP3     OH2      OT      -0.834000       15.9994           0
     62234 WT6      486      TIP3     H1       HT       0.417000        1.0080           0
     62235 WT6      486      TIP3     H2       HT       0.417000        1.0080           0
     62236 WT6      489      TIP3     OH2      OT      -0.834000       15.9994           0
     62237 WT6      489      TIP3     H1       HT       0.417000        1.0080           0
     62238 WT6      489      TIP3     H2       HT       0.417000        1.0080           0
     62239 WT6      503      TIP3     OH2      OT      -0.834000       15.9994           0
     62240 WT6      503      TIP3     H1       HT       0.417000        1.0080           0
     62241 WT6      503      TIP3     H2       HT       0.417000        1.0080           0
     62242 WT6      506      TIP3     OH2      OT      -0.834000       15.9994           0
     62243 WT6      506      TIP3     H1       HT       0.417000        1.0080           0
     62244 WT6      506      TIP3     H2       HT       0.417000        1.0080           0
     62245 WT6      507      TIP3     OH2      OT      -0.834000       15.9994           0
     62246 WT6      507      TIP3     H1       HT       0.417000        1.0080           0
     62247 WT6      507      TIP3     H2       HT       0.417000        1.0080           0
     62248 WT6      509      TIP3     OH2      OT      -0.834000       15.9994           0
     62249 WT6      509      TIP3     H1       HT       0.417000        1.0080           0
     62250 WT6      509      TIP3     H2       HT       0.417000        1.0080           0
     62251 WT6      511      TIP3     OH2      OT      -0.834000       15.9994           0
     62252 WT6      511      TIP3     H1       HT       0.417000        1.0080           0
     62253 WT6      511      TIP3     H2       HT       0.417000        1.0080           0
     62254 WT6      512      TIP3     OH2      OT      -0.834000       15.9994           0
     62255 WT6      512      TIP3     H1       HT       0.417000        1.0080           0
     62256 WT6      512      TIP3     H2       HT       0.417000        1.0080           0
     62257 WT6      517      TIP3     OH2      OT      -0.834000       15.9994           0
     62258 WT6      517      TIP3     H1       HT       0.417000        1.0080           0
     62259 WT6      517      TIP3     H2       HT       0.417000        1.0080           0
     62260 WT6      529      TIP3     OH2      OT      -0.834000       15.9994           0
     62261 WT6      529      TIP3     H1       HT       0.417000        1.0080           0
     62262 WT6      529      TIP3     H2       HT       0.417000        1.0080           0
     62263 WT6      533      TIP3     OH2      OT      -0.834000       15.9994           0
     62264 WT6      533      TIP3     H1       HT       0.417000        1.0080           0
     62265 WT6      533      TIP3     H2       HT       0.417000        1.0080           0
     62266 WT6      534      TIP3     OH2      OT      -0.834000       15.9994           0
     62267 WT6      534      TIP3     H1       HT       0.417000        1.0080           0
     62268 WT6      534      TIP3     H2       HT       0.417000        1.0080           0
     62269 WT6      535      TIP3     OH2      OT      -0.834000       15.9994           0
     62270 WT6      535      TIP3     H1       HT       0.417000        1.0080           0
     62271 WT6      535      TIP3     H2       HT       0.417000        1.0080           0
     62272 WT6      543      TIP3     OH2      OT      -0.834000       15.9994           0
     62273 WT6      543      TIP3     H1       HT       0.417000        1.0080           0
     62274 WT6      543      TIP3     H2       HT       0.417000        1.0080           0
     62275 WT6      548      TIP3     OH2      OT      -0.834000       15.9994           0
     62276 WT6      548      TIP3     H1       HT       0.417000        1.0080           0
     62277 WT6      548      TIP3     H2       HT       0.417000        1.0080           0
     62278 WT6      550      TIP3     OH2      OT      -0.834000       15.9994           0
     62279 WT6      550      TIP3     H1       HT       0.417000        1.0080           0
     62280 WT6      550      TIP3     H2       HT       0.417000        1.0080           0
     62281 WT6      551      TIP3     OH2      OT      -0.834000       15.9994           0
     62282 WT6      551      TIP3     H1       HT       0.417000        1.0080           0
     62283 WT6      551      TIP3     H2       HT       0.417000        1.0080           0
     62284 WT6      554      TIP3     OH2      OT      -0.834000       15.9994           0
     62285 WT6      554      TIP3     H1       HT       0.417000        1.0080           0
     62286 WT6      554      TIP3     H2       HT       0.417000        1.0080           0
     62287 WT6      558      TIP3     OH2      OT      -0.834000       15.9994           0
     62288 WT6      558      TIP3     H1       HT       0.417000        1.0080           0
     62289 WT6      558      TIP3     H2       HT       0.417000        1.0080           0
     62290 WT6      562      TIP3     OH2      OT      -0.834000       15.9994           0
     62291 WT6      562      TIP3     H1       HT       0.417000        1.0080           0
     62292 WT6      562      TIP3     H2       HT       0.417000        1.0080           0
     62293 WT6      568      TIP3     OH2      OT      -0.834000       15.9994           0
     62294 WT6      568      TIP3     H1       HT       0.417000        1.0080           0
     62295 WT6      568      TIP3     H2       HT       0.417000        1.0080           0
     62296 WT6      570      TIP3     OH2      OT      -0.834000       15.9994           0
     62297 WT6      570      TIP3     H1       HT       0.417000        1.0080           0
     62298 WT6      570      TIP3     H2       HT       0.417000        1.0080           0
     62299 WT6      573      TIP3     OH2      OT      -0.834000       15.9994           0
     62300 WT6      573      TIP3     H1       HT       0.417000        1.0080           0
     62301 WT6      573      TIP3     H2       HT       0.417000        1.0080           0
     62302 WT6      575      TIP3     OH2      OT      -0.834000       15.9994           0
     62303 WT6      575      TIP3     H1       HT       0.417000        1.0080           0
     62304 WT6      575      TIP3     H2       HT       0.417000        1.0080           0
     62305 WT6      576      TIP3     OH2      OT      -0.834000       15.9994           0
     62306 WT6      576      TIP3     H1       HT       0.417000        1.0080           0
     62307 WT6      576      TIP3     H2       HT       0.417000        1.0080           0
     62308 WT6      584      TIP3     OH2      OT      -0.834000       15.9994           0
     62309 WT6      584      TIP3     H1       HT       0.417000        1.0080           0
     62310 WT6      584      TIP3     H2       HT       0.417000        1.0080           0
     62311 WT6      588      TIP3     OH2      OT      -0.834000       15.9994           0
     62312 WT6      588      TIP3     H1       HT       0.417000        1.0080           0
     62313 WT6      588      TIP3     H2       HT       0.417000        1.0080           0
     62314 WT6      591      TIP3     OH2      OT      -0.834000       15.9994           0
     62315 WT6      591      TIP3     H1       HT       0.417000        1.0080           0
     62316 WT6      591      TIP3     H2       HT       0.417000        1.0080           0
     62317 WT6      592      TIP3     OH2      OT      -0.834000       15.9994           0
     62318 WT6      592      TIP3     H1       HT       0.417000        1.0080           0
     62319 WT6      592      TIP3     H2       HT       0.417000        1.0080           0
     62320 WT6      593      TIP3     OH2      OT      -0.834000       15.9994           0
     62321 WT6      593      TIP3     H1       HT       0.417000        1.0080           0
     62322 WT6      593      TIP3     H2       HT       0.417000        1.0080           0
     62323 WT6      594      TIP3     OH2      OT      -0.834000       15.9994           0
     62324 WT6      594      TIP3     H1       HT       0.417000        1.0080           0
     62325 WT6      594      TIP3     H2       HT       0.417000        1.0080           0
     62326 WT6      595      TIP3     OH2      OT      -0.834000       15.9994           0
     62327 WT6      595      TIP3     H1       HT       0.417000        1.0080           0
     62328 WT6      595      TIP3     H2       HT       0.417000        1.0080           0
     62329 WT6      611      TIP3     OH2      OT      -0.834000       15.9994           0
     62330 WT6      611      TIP3     H1       HT       0.417000        1.0080           0
     62331 WT6      611      TIP3     H2       HT       0.417000        1.0080           0
     62332 WT6      612      TIP3     OH2      OT      -0.834000       15.9994           0
     62333 WT6      612      TIP3     H1       HT       0.417000        1.0080           0
     62334 WT6      612      TIP3     H2       HT       0.417000        1.0080           0
     62335 WT6      613      TIP3     OH2      OT      -0.834000       15.9994           0
     62336 WT6      613      TIP3     H1       HT       0.417000        1.0080           0
     62337 WT6      613      TIP3     H2       HT       0.417000        1.0080           0
     62338 WT6      616      TIP3     OH2      OT      -0.834000       15.9994           0
     62339 WT6      616      TIP3     H1       HT       0.417000        1.0080           0
     62340 WT6      616      TIP3     H2       HT       0.417000        1.0080           0
     62341 WT6      619      TIP3     OH2      OT      -0.834000       15.9994           0
     62342 WT6      619      TIP3     H1       HT       0.417000        1.0080           0
     62343 WT6      619      TIP3     H2       HT       0.417000        1.0080           0
     62344 WT6      632      TIP3     OH2      OT      -0.834000       15.9994           0
     62345 WT6      632      TIP3     H1       HT       0.417000        1.0080           0
     62346 WT6      632      TIP3     H2       HT       0.417000        1.0080           0
     62347 WT6      634      TIP3     OH2      OT      -0.834000       15.9994           0
     62348 WT6      634      TIP3     H1       HT       0.417000        1.0080           0
     62349 WT6      634      TIP3     H2       HT       0.417000        1.0080           0
     62350 WT6      635      TIP3     OH2      OT      -0.834000       15.9994           0
     62351 WT6      635      TIP3     H1       HT       0.417000        1.0080           0
     62352 WT6      635      TIP3     H2       HT       0.417000        1.0080           0
     62353 WT6      636      TIP3     OH2      OT      -0.834000       15.9994           0
     62354 WT6      636      TIP3     H1       HT       0.417000        1.0080           0
     62355 WT6      636      TIP3     H2       HT       0.417000        1.0080           0
     62356 WT6      638      TIP3     OH2      OT      -0.834000       15.9994           0
     62357 WT6      638      TIP3     H1       HT       0.417000        1.0080           0
     62358 WT6      638      TIP3     H2       HT       0.417000        1.0080           0
     62359 WT6      640      TIP3     OH2      OT      -0.834000       15.9994           0
     62360 WT6      640      TIP3     H1       HT       0.417000        1.0080           0
     62361 WT6      640      TIP3     H2       HT       0.417000        1.0080           0
     62362 WT6      653      TIP3     OH2      OT      -0.834000       15.9994           0
     62363 WT6      653      TIP3     H1       HT       0.417000        1.0080           0
     62364 WT6      653      TIP3     H2       HT       0.417000        1.0080           0
     62365 WT6      657      TIP3     OH2      OT      -0.834000       15.9994           0
     62366 WT6      657      TIP3     H1       HT       0.417000        1.0080           0
     62367 WT6      657      TIP3     H2       HT       0.417000        1.0080           0
     62368 WT6      659      TIP3     OH2      OT      -0.834000       15.9994           0
     62369 WT6      659      TIP3     H1       HT       0.417000        1.0080           0
     62370 WT6      659      TIP3     H2       HT       0.417000        1.0080           0
     62371 WT6      674      TIP3     OH2      OT      -0.834000       15.9994           0
     62372 WT6      674      TIP3     H1       HT       0.417000        1.0080           0
     62373 WT6      674      TIP3     H2       HT       0.417000        1.0080           0
     62374 WT6      675      TIP3     OH2      OT      -0.834000       15.9994           0
     62375 WT6      675      TIP3     H1       HT       0.417000        1.0080           0
     62376 WT6      675      TIP3     H2       HT       0.417000        1.0080           0
     62377 WT6      676      TIP3     OH2      OT      -0.834000       15.9994           0
     62378 WT6      676      TIP3     H1       HT       0.417000        1.0080           0
     62379 WT6      676      TIP3     H2       HT       0.417000        1.0080           0
     62380 WT6      677      TIP3     OH2      OT      -0.834000       15.9994           0
     62381 WT6      677      TIP3     H1       HT       0.417000        1.0080           0
     62382 WT6      677      TIP3     H2       HT       0.417000        1.0080           0
     62383 WT6      678      TIP3     OH2      OT      -0.834000       15.9994           0
     62384 WT6      678      TIP3     H1       HT       0.417000        1.0080           0
     62385 WT6      678      TIP3     H2       HT       0.417000        1.0080           0
     62386 WT6      680      TIP3     OH2      OT      -0.834000       15.9994           0
     62387 WT6      680      TIP3     H1       HT       0.417000        1.0080           0
     62388 WT6      680      TIP3     H2       HT       0.417000        1.0080           0
     62389 WT6      682      TIP3     OH2      OT      -0.834000       15.9994           0
     62390 WT6      682      TIP3     H1       HT       0.417000        1.0080           0
     62391 WT6      682      TIP3     H2       HT       0.417000        1.0080           0
     62392 WT6      699      TIP3     OH2      OT      -0.834000       15.9994           0
     62393 WT6      699      TIP3     H1       HT       0.417000        1.0080           0
     62394 WT6      699      TIP3     H2       HT       0.417000        1.0080           0
     62395 WT6      701      TIP3     OH2      OT      -0.834000       15.9994           0
     62396 WT6      701      TIP3     H1       HT       0.417000        1.0080           0
     62397 WT6      701      TIP3     H2       HT       0.417000        1.0080           0
     62398 WT6      715      TIP3     OH2      OT      -0.834000       15.9994           0
     62399 WT6      715      TIP3     H1       HT       0.417000        1.0080           0
     62400 WT6      715      TIP3     H2       HT       0.417000        1.0080           0
     62401 WT6      717      TIP3     OH2      OT      -0.834000       15.9994           0
     62402 WT6      717      TIP3     H1       HT       0.417000        1.0080           0
     62403 WT6      717      TIP3     H2       HT       0.417000        1.0080           0
     62404 WT6      721      TIP3     OH2      OT      -0.834000       15.9994           0
     62405 WT6      721      TIP3     H1       HT       0.417000        1.0080           0
     62406 WT6      721      TIP3     H2       HT       0.417000        1.0080           0
     62407 WT6      736      TIP3     OH2      OT      -0.834000       15.9994           0
     62408 WT6      736      TIP3     H1       HT       0.417000        1.0080           0
     62409 WT6      736      TIP3     H2       HT       0.417000        1.0080           0
     62410 WT6      738      TIP3     OH2      OT      -0.834000       15.9994           0
     62411 WT6      738      TIP3     H1       HT       0.417000        1.0080           0
     62412 WT6      738      TIP3     H2       HT       0.417000        1.0080           0
     62413 WT6      740      TIP3     OH2      OT      -0.834000       15.9994           0
     62414 WT6      740      TIP3     H1       HT       0.417000        1.0080           0
     62415 WT6      740      TIP3     H2       HT       0.417000        1.0080           0
     62416 WT6      741      TIP3     OH2      OT      -0.834000       15.9994           0
     62417 WT6      741      TIP3     H1       HT       0.417000        1.0080           0
     62418 WT6      741      TIP3     H2       HT       0.417000        1.0080           0
     62419 WT6      744      TIP3     OH2      OT      -0.834000       15.9994           0
     62420 WT6      744      TIP3     H1       HT       0.417000        1.0080           0
     62421 WT6      744      TIP3     H2       HT       0.417000        1.0080           0
     62422 WT6      746      TIP3     OH2      OT      -0.834000       15.9994           0
     62423 WT6      746      TIP3     H1       HT       0.417000        1.0080           0
     62424 WT6      746      TIP3     H2       HT       0.417000        1.0080           0
     62425 WT6      757      TIP3     OH2      OT      -0.834000       15.9994           0
     62426 WT6      757      TIP3     H1       HT       0.417000        1.0080           0
     62427 WT6      757      TIP3     H2       HT       0.417000        1.0080           0
     62428 WT6      759      TIP3     OH2      OT      -0.834000       15.9994           0
     62429 WT6      759      TIP3     H1       HT       0.417000        1.0080           0
     62430 WT6      759      TIP3     H2       HT       0.417000        1.0080           0
     62431 WT6      761      TIP3     OH2      OT      -0.834000       15.9994           0
     62432 WT6      761      TIP3     H1       HT       0.417000        1.0080           0
     62433 WT6      761      TIP3     H2       HT       0.417000        1.0080           0
     62434 WT6      765      TIP3     OH2      OT      -0.834000       15.9994           0
     62435 WT6      765      TIP3     H1       HT       0.417000        1.0080           0
     62436 WT6      765      TIP3     H2       HT       0.417000        1.0080           0
     62437 WT6      766      TIP3     OH2      OT      -0.834000       15.9994           0
     62438 WT6      766      TIP3     H1       HT       0.417000        1.0080           0
     62439 WT6      766      TIP3     H2       HT       0.417000        1.0080           0
     62440 WT6      778      TIP3     OH2      OT      -0.834000       15.9994           0
     62441 WT6      778      TIP3     H1       HT       0.417000        1.0080           0
     62442 WT6      778      TIP3     H2       HT       0.417000        1.0080           0
     62443 WT6      779      TIP3     OH2      OT      -0.834000       15.9994           0
     62444 WT6      779      TIP3     H1       HT       0.417000        1.0080           0
     62445 WT6      779      TIP3     H2       HT       0.417000        1.0080           0
     62446 WT6      781      TIP3     OH2      OT      -0.834000       15.9994           0
     62447 WT6      781      TIP3     H1       HT       0.417000        1.0080           0
     62448 WT6      781      TIP3     H2       HT       0.417000        1.0080           0
     62449 WT6      782      TIP3     OH2      OT      -0.834000       15.9994           0
     62450 WT6      782      TIP3     H1       HT       0.417000        1.0080           0
     62451 WT6      782      TIP3     H2       HT       0.417000        1.0080           0
     62452 WT6      783      TIP3     OH2      OT      -0.834000       15.9994           0
     62453 WT6      783      TIP3     H1       HT       0.417000        1.0080           0
     62454 WT6      783      TIP3     H2       HT       0.417000        1.0080           0
     62455 WT6      785      TIP3     OH2      OT      -0.834000       15.9994           0
     62456 WT6      785      TIP3     H1       HT       0.417000        1.0080           0
     62457 WT6      785      TIP3     H2       HT       0.417000        1.0080           0
     62458 WT6      801      TIP3     OH2      OT      -0.834000       15.9994           0
     62459 WT6      801      TIP3     H1       HT       0.417000        1.0080           0
     62460 WT6      801      TIP3     H2       HT       0.417000        1.0080           0
     62461 WT6      803      TIP3     OH2      OT      -0.834000       15.9994           0
     62462 WT6      803      TIP3     H1       HT       0.417000        1.0080           0
     62463 WT6      803      TIP3     H2       HT       0.417000        1.0080           0
     62464 WT6      804      TIP3     OH2      OT      -0.834000       15.9994           0
     62465 WT6      804      TIP3     H1       HT       0.417000        1.0080           0
     62466 WT6      804      TIP3     H2       HT       0.417000        1.0080           0
     62467 WT6      807      TIP3     OH2      OT      -0.834000       15.9994           0
     62468 WT6      807      TIP3     H1       HT       0.417000        1.0080           0
     62469 WT6      807      TIP3     H2       HT       0.417000        1.0080           0
     62470 WT6      809      TIP3     OH2      OT      -0.834000       15.9994           0
     62471 WT6      809      TIP3     H1       HT       0.417000        1.0080           0
     62472 WT6      809      TIP3     H2       HT       0.417000        1.0080           0
     62473 WT6      822      TIP3     OH2      OT      -0.834000       15.9994           0
     62474 WT6      822      TIP3     H1       HT       0.417000        1.0080           0
     62475 WT6      822      TIP3     H2       HT       0.417000        1.0080           0
     62476 WT6      824      TIP3     OH2      OT      -0.834000       15.9994           0
     62477 WT6      824      TIP3     H1       HT       0.417000        1.0080           0
     62478 WT6      824      TIP3     H2       HT       0.417000        1.0080           0
     62479 WT6      828      TIP3     OH2      OT      -0.834000       15.9994           0
     62480 WT6      828      TIP3     H1       HT       0.417000        1.0080           0
     62481 WT6      828      TIP3     H2       HT       0.417000        1.0080           0
     62482 WT6      843      TIP3     OH2      OT      -0.834000       15.9994           0
     62483 WT6      843      TIP3     H1       HT       0.417000        1.0080           0
     62484 WT6      843      TIP3     H2       HT       0.417000        1.0080           0
     62485 WT6      846      TIP3     OH2      OT      -0.834000       15.9994           0
     62486 WT6      846      TIP3     H1       HT       0.417000        1.0080           0
     62487 WT6      846      TIP3     H2       HT       0.417000        1.0080           0
     62488 WT6      847      TIP3     OH2      OT      -0.834000       15.9994           0
     62489 WT6      847      TIP3     H1       HT       0.417000        1.0080           0
     62490 WT6      847      TIP3     H2       HT       0.417000        1.0080           0
     62491 WT6      849      TIP3     OH2      OT      -0.834000       15.9994           0
     62492 WT6      849      TIP3     H1       HT       0.417000        1.0080           0
     62493 WT6      849      TIP3     H2       HT       0.417000        1.0080           0
     62494 WT6      862      TIP3     OH2      OT      -0.834000       15.9994           0
     62495 WT6      862      TIP3     H1       HT       0.417000        1.0080           0
     62496 WT6      862      TIP3     H2       HT       0.417000        1.0080           0
     62497 WT6      865      TIP3     OH2      OT      -0.834000       15.9994           0
     62498 WT6      865      TIP3     H1       HT       0.417000        1.0080           0
     62499 WT6      865      TIP3     H2       HT       0.417000        1.0080           0
     62500 WT6      867      TIP3     OH2      OT      -0.834000       15.9994           0
     62501 WT6      867      TIP3     H1       HT       0.417000        1.0080           0
     62502 WT6      867      TIP3     H2       HT       0.417000        1.0080           0
     62503 WT6      883      TIP3     OH2      OT      -0.834000       15.9994           0
     62504 WT6      883      TIP3     H1       HT       0.417000        1.0080           0
     62505 WT6      883      TIP3     H2       HT       0.417000        1.0080           0
     62506 WT6      885      TIP3     OH2      OT      -0.834000       15.9994           0
     62507 WT6      885      TIP3     H1       HT       0.417000        1.0080           0
     62508 WT6      885      TIP3     H2       HT       0.417000        1.0080           0
     62509 WT6      888      TIP3     OH2      OT      -0.834000       15.9994           0
     62510 WT6      888      TIP3     H1       HT       0.417000        1.0080           0
     62511 WT6      888      TIP3     H2       HT       0.417000        1.0080           0
     62512 WT6      891      TIP3     OH2      OT      -0.834000       15.9994           0
     62513 WT6      891      TIP3     H1       HT       0.417000        1.0080           0
     62514 WT6      891      TIP3     H2       HT       0.417000        1.0080           0
     62515 WT6      892      TIP3     OH2      OT      -0.834000       15.9994           0
     62516 WT6      892      TIP3     H1       HT       0.417000        1.0080           0
     62517 WT6      892      TIP3     H2       HT       0.417000        1.0080           0
     62518 WT6      905      TIP3     OH2      OT      -0.834000       15.9994           0
     62519 WT6      905      TIP3     H1       HT       0.417000        1.0080           0
     62520 WT6      905      TIP3     H2       HT       0.417000        1.0080           0
     62521 WT6      906      TIP3     OH2      OT      -0.834000       15.9994           0
     62522 WT6      906      TIP3     H1       HT       0.417000        1.0080           0
     62523 WT6      906      TIP3     H2       HT       0.417000        1.0080           0
     62524 WT6      907      TIP3     OH2      OT      -0.834000       15.9994           0
     62525 WT6      907      TIP3     H1       HT       0.417000        1.0080           0
     62526 WT6      907      TIP3     H2       HT       0.417000        1.0080           0
     62527 WT6      908      TIP3     OH2      OT      -0.834000       15.9994           0
     62528 WT6      908      TIP3     H1       HT       0.417000        1.0080           0
     62529 WT6      908      TIP3     H2       HT       0.417000        1.0080           0
     62530 WT6      909      TIP3     OH2      OT      -0.834000       15.9994           0
     62531 WT6      909      TIP3     H1       HT       0.417000        1.0080           0
     62532 WT6      909      TIP3     H2       HT       0.417000        1.0080           0
     62533 WT6      910      TIP3     OH2      OT      -0.834000       15.9994           0
     62534 WT6      910      TIP3     H1       HT       0.417000        1.0080           0
     62535 WT6      910      TIP3     H2       HT       0.417000        1.0080           0
     62536 WT6      912      TIP3     OH2      OT      -0.834000       15.9994           0
     62537 WT6      912      TIP3     H1       HT       0.417000        1.0080           0
     62538 WT6      912      TIP3     H2       HT       0.417000        1.0080           0
     62539 WT6      913      TIP3     OH2      OT      -0.834000       15.9994           0
     62540 WT6      913      TIP3     H1       HT       0.417000        1.0080           0
     62541 WT6      913      TIP3     H2       HT       0.417000        1.0080           0
     62542 WT6      915      TIP3     OH2      OT      -0.834000       15.9994           0
     62543 WT6      915      TIP3     H1       HT       0.417000        1.0080           0
     62544 WT6      915      TIP3     H2       HT       0.417000        1.0080           0
     62545 WT6      924      TIP3     OH2      OT      -0.834000       15.9994           0
     62546 WT6      924      TIP3     H1       HT       0.417000        1.0080           0
     62547 WT6      924      TIP3     H2       HT       0.417000        1.0080           0
     62548 WT6      925      TIP3     OH2      OT      -0.834000       15.9994           0
     62549 WT6      925      TIP3     H1       HT       0.417000        1.0080           0
     62550 WT6      925      TIP3     H2       HT       0.417000        1.0080           0
     62551 WT6      926      TIP3     OH2      OT      -0.834000       15.9994           0
     62552 WT6      926      TIP3     H1       HT       0.417000        1.0080           0
     62553 WT6      926      TIP3     H2       HT       0.417000        1.0080           0
     62554 WT6      927      TIP3     OH2      OT      -0.834000       15.9994           0
     62555 WT6      927      TIP3     H1       HT       0.417000        1.0080           0
     62556 WT6      927      TIP3     H2       HT       0.417000        1.0080           0
     62557 WT6      928      TIP3     OH2      OT      -0.834000       15.9994           0
     62558 WT6      928      TIP3     H1       HT       0.417000        1.0080           0
     62559 WT6      928      TIP3     H2       HT       0.417000        1.0080           0
     62560 WT6      929      TIP3     OH2      OT      -0.834000       15.9994           0
     62561 WT6      929      TIP3     H1       HT       0.417000        1.0080           0
     62562 WT6      929      TIP3     H2       HT       0.417000        1.0080           0
     62563 WT6      930      TIP3     OH2      OT      -0.834000       15.9994           0
     62564 WT6      930      TIP3     H1       HT       0.417000        1.0080           0
     62565 WT6      930      TIP3     H2       HT       0.417000        1.0080           0
     62566 WT6      932      TIP3     OH2      OT      -0.834000       15.9994           0
     62567 WT6      932      TIP3     H1       HT       0.417000        1.0080           0
     62568 WT6      932      TIP3     H2       HT       0.417000        1.0080           0
     62569 WT6      933      TIP3     OH2      OT      -0.834000       15.9994           0
     62570 WT6      933      TIP3     H1       HT       0.417000        1.0080           0
     62571 WT6      933      TIP3     H2       HT       0.417000        1.0080           0
     62572 WT6      935      TIP3     OH2      OT      -0.834000       15.9994           0
     62573 WT6      935      TIP3     H1       HT       0.417000        1.0080           0
     62574 WT6      935      TIP3     H2       HT       0.417000        1.0080           0
     62575 WT6      942      TIP3     OH2      OT      -0.834000       15.9994           0
     62576 WT6      942      TIP3     H1       HT       0.417000        1.0080           0
     62577 WT6      942      TIP3     H2       HT       0.417000        1.0080           0
     62578 WT6      947      TIP3     OH2      OT      -0.834000       15.9994           0
     62579 WT6      947      TIP3     H1       HT       0.417000        1.0080           0
     62580 WT6      947      TIP3     H2       HT       0.417000        1.0080           0
     62581 WT6      948      TIP3     OH2      OT      -0.834000       15.9994           0
     62582 WT6      948      TIP3     H1       HT       0.417000        1.0080           0
     62583 WT6      948      TIP3     H2       HT       0.417000        1.0080           0
     62584 WT6      950      TIP3     OH2      OT      -0.834000       15.9994           0
     62585 WT6      950      TIP3     H1       HT       0.417000        1.0080           0
     62586 WT6      950      TIP3     H2       HT       0.417000        1.0080           0
     62587 WT6      951      TIP3     OH2      OT      -0.834000       15.9994           0
     62588 WT6      951      TIP3     H1       HT       0.417000        1.0080           0
     62589 WT6      951      TIP3     H2       HT       0.417000        1.0080           0
     62590 WT6      952      TIP3     OH2      OT      -0.834000       15.9994           0
     62591 WT6      952      TIP3     H1       HT       0.417000        1.0080           0
     62592 WT6      952      TIP3     H2       HT       0.417000        1.0080           0
     62593 WT6      953      TIP3     OH2      OT      -0.834000       15.9994           0
     62594 WT6      953      TIP3     H1       HT       0.417000        1.0080           0
     62595 WT6      953      TIP3     H2       HT       0.417000        1.0080           0
     62596 WT6      964      TIP3     OH2      OT      -0.834000       15.9994           0
     62597 WT6      964      TIP3     H1       HT       0.417000        1.0080           0
     62598 WT6      964      TIP3     H2       HT       0.417000        1.0080           0
     62599 WT6      968      TIP3     OH2      OT      -0.834000       15.9994           0
     62600 WT6      968      TIP3     H1       HT       0.417000        1.0080           0
     62601 WT6      968      TIP3     H2       HT       0.417000        1.0080           0
     62602 WT6      969      TIP3     OH2      OT      -0.834000       15.9994           0
     62603 WT6      969      TIP3     H1       HT       0.417000        1.0080           0
     62604 WT6      969      TIP3     H2       HT       0.417000        1.0080           0
     62605 WT6      970      TIP3     OH2      OT      -0.834000       15.9994           0
     62606 WT6      970      TIP3     H1       HT       0.417000        1.0080           0
     62607 WT6      970      TIP3     H2       HT       0.417000        1.0080           0
     62608 WT6      972      TIP3     OH2      OT      -0.834000       15.9994           0
     62609 WT6      972      TIP3     H1       HT       0.417000        1.0080           0
     62610 WT6      972      TIP3     H2       HT       0.417000        1.0080           0
     62611 WT6      973      TIP3     OH2      OT      -0.834000       15.9994           0
     62612 WT6      973      TIP3     H1       HT       0.417000        1.0080           0
     62613 WT6      973      TIP3     H2       HT       0.417000        1.0080           0
     62614 WT6      974      TIP3     OH2      OT      -0.834000       15.9994           0
     62615 WT6      974      TIP3     H1       HT       0.417000        1.0080           0
     62616 WT6      974      TIP3     H2       HT       0.417000        1.0080           0
     62617 WT6      975      TIP3     OH2      OT      -0.834000       15.9994           0
     62618 WT6      975      TIP3     H1       HT       0.417000        1.0080           0
     62619 WT6      975      TIP3     H2       HT       0.417000        1.0080           0
     62620 WT6      987      TIP3     OH2      OT      -0.834000       15.9994           0
     62621 WT6      987      TIP3     H1       HT       0.417000        1.0080           0
     62622 WT6      987      TIP3     H2       HT       0.417000        1.0080           0
     62623 WT6      988      TIP3     OH2      OT      -0.834000       15.9994           0
     62624 WT6      988      TIP3     H1       HT       0.417000        1.0080           0
     62625 WT6      988      TIP3     H2       HT       0.417000        1.0080           0
     62626 WT6      989      TIP3     OH2      OT      -0.834000       15.9994           0
     62627 WT6      989      TIP3     H1       HT       0.417000        1.0080           0
     62628 WT6      989      TIP3     H2       HT       0.417000        1.0080           0
     62629 WT6      991      TIP3     OH2      OT      -0.834000       15.9994           0
     62630 WT6      991      TIP3     H1       HT       0.417000        1.0080           0
     62631 WT6      991      TIP3     H2       HT       0.417000        1.0080           0
     62632 WT6      992      TIP3     OH2      OT      -0.834000       15.9994           0
     62633 WT6      992      TIP3     H1       HT       0.417000        1.0080           0
     62634 WT6      992      TIP3     H2       HT       0.417000        1.0080           0
     62635 WT6      995      TIP3     OH2      OT      -0.834000       15.9994           0
     62636 WT6      995      TIP3     H1       HT       0.417000        1.0080           0
     62637 WT6      995      TIP3     H2       HT       0.417000        1.0080           0
     62638 WT6      996      TIP3     OH2      OT      -0.834000       15.9994           0
     62639 WT6      996      TIP3     H1       HT       0.417000        1.0080           0
     62640 WT6      996      TIP3     H2       HT       0.417000        1.0080           0
     62641 WT6      1007     TIP3     OH2      OT      -0.834000       15.9994           0
     62642 WT6      1007     TIP3     H1       HT       0.417000        1.0080           0
     62643 WT6      1007     TIP3     H2       HT       0.417000        1.0080           0
     62644 WT6      1011     TIP3     OH2      OT      -0.834000       15.9994           0
     62645 WT6      1011     TIP3     H1       HT       0.417000        1.0080           0
     62646 WT6      1011     TIP3     H2       HT       0.417000        1.0080           0
     62647 WT6      1013     TIP3     OH2      OT      -0.834000       15.9994           0
     62648 WT6      1013     TIP3     H1       HT       0.417000        1.0080           0
     62649 WT6      1013     TIP3     H2       HT       0.417000        1.0080           0
     62650 WT6      1014     TIP3     OH2      OT      -0.834000       15.9994           0
     62651 WT6      1014     TIP3     H1       HT       0.417000        1.0080           0
     62652 WT6      1014     TIP3     H2       HT       0.417000        1.0080           0
     62653 WT6      1015     TIP3     OH2      OT      -0.834000       15.9994           0
     62654 WT6      1015     TIP3     H1       HT       0.417000        1.0080           0
     62655 WT6      1015     TIP3     H2       HT       0.417000        1.0080           0
     62656 WT6      1017     TIP3     OH2      OT      -0.834000       15.9994           0
     62657 WT6      1017     TIP3     H1       HT       0.417000        1.0080           0
     62658 WT6      1017     TIP3     H2       HT       0.417000        1.0080           0
     62659 WT6      1018     TIP3     OH2      OT      -0.834000       15.9994           0
     62660 WT6      1018     TIP3     H1       HT       0.417000        1.0080           0
     62661 WT6      1018     TIP3     H2       HT       0.417000        1.0080           0
     62662 WT6      1027     TIP3     OH2      OT      -0.834000       15.9994           0
     62663 WT6      1027     TIP3     H1       HT       0.417000        1.0080           0
     62664 WT6      1027     TIP3     H2       HT       0.417000        1.0080           0
     62665 WT6      1032     TIP3     OH2      OT      -0.834000       15.9994           0
     62666 WT6      1032     TIP3     H1       HT       0.417000        1.0080           0
     62667 WT6      1032     TIP3     H2       HT       0.417000        1.0080           0
     62668 WT6      1033     TIP3     OH2      OT      -0.834000       15.9994           0
     62669 WT6      1033     TIP3     H1       HT       0.417000        1.0080           0
     62670 WT6      1033     TIP3     H2       HT       0.417000        1.0080           0
     62671 WT6      1040     TIP3     OH2      OT      -0.834000       15.9994           0
     62672 WT6      1040     TIP3     H1       HT       0.417000        1.0080           0
     62673 WT6      1040     TIP3     H2       HT       0.417000        1.0080           0
     62674 WT6      1053     TIP3     OH2      OT      -0.834000       15.9994           0
     62675 WT6      1053     TIP3     H1       HT       0.417000        1.0080           0
     62676 WT6      1053     TIP3     H2       HT       0.417000        1.0080           0
     62677 WT6      1054     TIP3     OH2      OT      -0.834000       15.9994           0
     62678 WT6      1054     TIP3     H1       HT       0.417000        1.0080           0
     62679 WT6      1054     TIP3     H2       HT       0.417000        1.0080           0
     62680 WT6      1055     TIP3     OH2      OT      -0.834000       15.9994           0
     62681 WT6      1055     TIP3     H1       HT       0.417000        1.0080           0
     62682 WT6      1055     TIP3     H2       HT       0.417000        1.0080           0
     62683 WT6      1056     TIP3     OH2      OT      -0.834000       15.9994           0
     62684 WT6      1056     TIP3     H1       HT       0.417000        1.0080           0
     62685 WT6      1056     TIP3     H2       HT       0.417000        1.0080           0
     62686 WT6      1057     TIP3     OH2      OT      -0.834000       15.9994           0
     62687 WT6      1057     TIP3     H1       HT       0.417000        1.0080           0
     62688 WT6      1057     TIP3     H2       HT       0.417000        1.0080           0
     62689 WT6      1058     TIP3     OH2      OT      -0.834000       15.9994           0
     62690 WT6      1058     TIP3     H1       HT       0.417000        1.0080           0
     62691 WT6      1058     TIP3     H2       HT       0.417000        1.0080           0
     62692 WT6      1059     TIP3     OH2      OT      -0.834000       15.9994           0
     62693 WT6      1059     TIP3     H1       HT       0.417000        1.0080           0
     62694 WT6      1059     TIP3     H2       HT       0.417000        1.0080           0
     62695 WT6      1072     TIP3     OH2      OT      -0.834000       15.9994           0
     62696 WT6      1072     TIP3     H1       HT       0.417000        1.0080           0
     62697 WT6      1072     TIP3     H2       HT       0.417000        1.0080           0
     62698 WT6      1075     TIP3     OH2      OT      -0.834000       15.9994           0
     62699 WT6      1075     TIP3     H1       HT       0.417000        1.0080           0
     62700 WT6      1075     TIP3     H2       HT       0.417000        1.0080           0
     62701 WT6      1076     TIP3     OH2      OT      -0.834000       15.9994           0
     62702 WT6      1076     TIP3     H1       HT       0.417000        1.0080           0
     62703 WT6      1076     TIP3     H2       HT       0.417000        1.0080           0
     62704 WT6      1077     TIP3     OH2      OT      -0.834000       15.9994           0
     62705 WT6      1077     TIP3     H1       HT       0.417000        1.0080           0
     62706 WT6      1077     TIP3     H2       HT       0.417000        1.0080           0
     62707 WT6      1078     TIP3     OH2      OT      -0.834000       15.9994           0
     62708 WT6      1078     TIP3     H1       HT       0.417000        1.0080           0
     62709 WT6      1078     TIP3     H2       HT       0.417000        1.0080           0
     62710 WT6      1080     TIP3     OH2      OT      -0.834000       15.9994           0
     62711 WT6      1080     TIP3     H1       HT       0.417000        1.0080           0
     62712 WT6      1080     TIP3     H2       HT       0.417000        1.0080           0
     62713 WT6      1096     TIP3     OH2      OT      -0.834000       15.9994           0
     62714 WT6      1096     TIP3     H1       HT       0.417000        1.0080           0
     62715 WT6      1096     TIP3     H2       HT       0.417000        1.0080           0
     62716 WT6      1098     TIP3     OH2      OT      -0.834000       15.9994           0
     62717 WT6      1098     TIP3     H1       HT       0.417000        1.0080           0
     62718 WT6      1098     TIP3     H2       HT       0.417000        1.0080           0
     62719 WT6      1101     TIP3     OH2      OT      -0.834000       15.9994           0
     62720 WT6      1101     TIP3     H1       HT       0.417000        1.0080           0
     62721 WT6      1101     TIP3     H2       HT       0.417000        1.0080           0
     62722 WT6      1112     TIP3     OH2      OT      -0.834000       15.9994           0
     62723 WT6      1112     TIP3     H1       HT       0.417000        1.0080           0
     62724 WT6      1112     TIP3     H2       HT       0.417000        1.0080           0
     62725 WT6      1115     TIP3     OH2      OT      -0.834000       15.9994           0
     62726 WT6      1115     TIP3     H1       HT       0.417000        1.0080           0
     62727 WT6      1115     TIP3     H2       HT       0.417000        1.0080           0
     62728 WT6      1117     TIP3     OH2      OT      -0.834000       15.9994           0
     62729 WT6      1117     TIP3     H1       HT       0.417000        1.0080           0
     62730 WT6      1117     TIP3     H2       HT       0.417000        1.0080           0
     62731 WT6      1122     TIP3     OH2      OT      -0.834000       15.9994           0
     62732 WT6      1122     TIP3     H1       HT       0.417000        1.0080           0
     62733 WT6      1122     TIP3     H2       HT       0.417000        1.0080           0
     62734 WT6      1134     TIP3     OH2      OT      -0.834000       15.9994           0
     62735 WT6      1134     TIP3     H1       HT       0.417000        1.0080           0
     62736 WT6      1134     TIP3     H2       HT       0.417000        1.0080           0
     62737 WT6      1135     TIP3     OH2      OT      -0.834000       15.9994           0
     62738 WT6      1135     TIP3     H1       HT       0.417000        1.0080           0
     62739 WT6      1135     TIP3     H2       HT       0.417000        1.0080           0
     62740 WT6      1138     TIP3     OH2      OT      -0.834000       15.9994           0
     62741 WT6      1138     TIP3     H1       HT       0.417000        1.0080           0
     62742 WT6      1138     TIP3     H2       HT       0.417000        1.0080           0
     62743 WT6      1139     TIP3     OH2      OT      -0.834000       15.9994           0
     62744 WT6      1139     TIP3     H1       HT       0.417000        1.0080           0
     62745 WT6      1139     TIP3     H2       HT       0.417000        1.0080           0
     62746 WT6      1140     TIP3     OH2      OT      -0.834000       15.9994           0
     62747 WT6      1140     TIP3     H1       HT       0.417000        1.0080           0
     62748 WT6      1140     TIP3     H2       HT       0.417000        1.0080           0
     62749 WT6      1155     TIP3     OH2      OT      -0.834000       15.9994           0
     62750 WT6      1155     TIP3     H1       HT       0.417000        1.0080           0
     62751 WT6      1155     TIP3     H2       HT       0.417000        1.0080           0
     62752 WT6      1157     TIP3     OH2      OT      -0.834000       15.9994           0
     62753 WT6      1157     TIP3     H1       HT       0.417000        1.0080           0
     62754 WT6      1157     TIP3     H2       HT       0.417000        1.0080           0
     62755 WT6      1158     TIP3     OH2      OT      -0.834000       15.9994           0
     62756 WT6      1158     TIP3     H1       HT       0.417000        1.0080           0
     62757 WT6      1158     TIP3     H2       HT       0.417000        1.0080           0
     62758 WT6      1160     TIP3     OH2      OT      -0.834000       15.9994           0
     62759 WT6      1160     TIP3     H1       HT       0.417000        1.0080           0
     62760 WT6      1160     TIP3     H2       HT       0.417000        1.0080           0
     62761 WT6      1162     TIP3     OH2      OT      -0.834000       15.9994           0
     62762 WT6      1162     TIP3     H1       HT       0.417000        1.0080           0
     62763 WT6      1162     TIP3     H2       HT       0.417000        1.0080           0
     62764 WT6      1163     TIP3     OH2      OT      -0.834000       15.9994           0
     62765 WT6      1163     TIP3     H1       HT       0.417000        1.0080           0
     62766 WT6      1163     TIP3     H2       HT       0.417000        1.0080           0
     62767 WT6      1178     TIP3     OH2      OT      -0.834000       15.9994           0
     62768 WT6      1178     TIP3     H1       HT       0.417000        1.0080           0
     62769 WT6      1178     TIP3     H2       HT       0.417000        1.0080           0
     62770 WT6      1179     TIP3     OH2      OT      -0.834000       15.9994           0
     62771 WT6      1179     TIP3     H1       HT       0.417000        1.0080           0
     62772 WT6      1179     TIP3     H2       HT       0.417000        1.0080           0
     62773 WT6      1180     TIP3     OH2      OT      -0.834000       15.9994           0
     62774 WT6      1180     TIP3     H1       HT       0.417000        1.0080           0
     62775 WT6      1180     TIP3     H2       HT       0.417000        1.0080           0
     62776 WT6      1181     TIP3     OH2      OT      -0.834000       15.9994           0
     62777 WT6      1181     TIP3     H1       HT       0.417000        1.0080           0
     62778 WT6      1181     TIP3     H2       HT       0.417000        1.0080           0
     62779 WT6      1183     TIP3     OH2      OT      -0.834000       15.9994           0
     62780 WT6      1183     TIP3     H1       HT       0.417000        1.0080           0
     62781 WT6      1183     TIP3     H2       HT       0.417000        1.0080           0
     62782 WT6      1197     TIP3     OH2      OT      -0.834000       15.9994           0
     62783 WT6      1197     TIP3     H1       HT       0.417000        1.0080           0
     62784 WT6      1197     TIP3     H2       HT       0.417000        1.0080           0
     62785 WT6      1200     TIP3     OH2      OT      -0.834000       15.9994           0
     62786 WT6      1200     TIP3     H1       HT       0.417000        1.0080           0
     62787 WT6      1200     TIP3     H2       HT       0.417000        1.0080           0
     62788 WT6      1201     TIP3     OH2      OT      -0.834000       15.9994           0
     62789 WT6      1201     TIP3     H1       HT       0.417000        1.0080           0
     62790 WT6      1201     TIP3     H2       HT       0.417000        1.0080           0
     62791 WT6      1202     TIP3     OH2      OT      -0.834000       15.9994           0
     62792 WT6      1202     TIP3     H1       HT       0.417000        1.0080           0
     62793 WT6      1202     TIP3     H2       HT       0.417000        1.0080           0
     62794 WT6      1206     TIP3     OH2      OT      -0.834000       15.9994           0
     62795 WT6      1206     TIP3     H1       HT       0.417000        1.0080           0
     62796 WT6      1206     TIP3     H2       HT       0.417000        1.0080           0
     62797 WT6      1208     TIP3     OH2      OT      -0.834000       15.9994           0
     62798 WT6      1208     TIP3     H1       HT       0.417000        1.0080           0
     62799 WT6      1208     TIP3     H2       HT       0.417000        1.0080           0
     62800 WT6      1219     TIP3     OH2      OT      -0.834000       15.9994           0
     62801 WT6      1219     TIP3     H1       HT       0.417000        1.0080           0
     62802 WT6      1219     TIP3     H2       HT       0.417000        1.0080           0
     62803 WT6      1220     TIP3     OH2      OT      -0.834000       15.9994           0
     62804 WT6      1220     TIP3     H1       HT       0.417000        1.0080           0
     62805 WT6      1220     TIP3     H2       HT       0.417000        1.0080           0
     62806 WT6      1222     TIP3     OH2      OT      -0.834000       15.9994           0
     62807 WT6      1222     TIP3     H1       HT       0.417000        1.0080           0
     62808 WT6      1222     TIP3     H2       HT       0.417000        1.0080           0
     62809 WT6      1223     TIP3     OH2      OT      -0.834000       15.9994           0
     62810 WT6      1223     TIP3     H1       HT       0.417000        1.0080           0
     62811 WT6      1223     TIP3     H2       HT       0.417000        1.0080           0
     62812 WT6      1224     TIP3     OH2      OT      -0.834000       15.9994           0
     62813 WT6      1224     TIP3     H1       HT       0.417000        1.0080           0
     62814 WT6      1224     TIP3     H2       HT       0.417000        1.0080           0
     62815 WT6      1225     TIP3     OH2      OT      -0.834000       15.9994           0
     62816 WT6      1225     TIP3     H1       HT       0.417000        1.0080           0
     62817 WT6      1225     TIP3     H2       HT       0.417000        1.0080           0
     62818 WT6      1226     TIP3     OH2      OT      -0.834000       15.9994           0
     62819 WT6      1226     TIP3     H1       HT       0.417000        1.0080           0
     62820 WT6      1226     TIP3     H2       HT       0.417000        1.0080           0
     62821 WT6      1240     TIP3     OH2      OT      -0.834000       15.9994           0
     62822 WT6      1240     TIP3     H1       HT       0.417000        1.0080           0
     62823 WT6      1240     TIP3     H2       HT       0.417000        1.0080           0
     62824 WT6      1241     TIP3     OH2      OT      -0.834000       15.9994           0
     62825 WT6      1241     TIP3     H1       HT       0.417000        1.0080           0
     62826 WT6      1241     TIP3     H2       HT       0.417000        1.0080           0
     62827 WT6      1242     TIP3     OH2      OT      -0.834000       15.9994           0
     62828 WT6      1242     TIP3     H1       HT       0.417000        1.0080           0
     62829 WT6      1242     TIP3     H2       HT       0.417000        1.0080           0
     62830 WT6      1244     TIP3     OH2      OT      -0.834000       15.9994           0
     62831 WT6      1244     TIP3     H1       HT       0.417000        1.0080           0
     62832 WT6      1244     TIP3     H2       HT       0.417000        1.0080           0
     62833 WT6      1247     TIP3     OH2      OT      -0.834000       15.9994           0
     62834 WT6      1247     TIP3     H1       HT       0.417000        1.0080           0
     62835 WT6      1247     TIP3     H2       HT       0.417000        1.0080           0
     62836 WT6      1248     TIP3     OH2      OT      -0.834000       15.9994           0
     62837 WT6      1248     TIP3     H1       HT       0.417000        1.0080           0
     62838 WT6      1248     TIP3     H2       HT       0.417000        1.0080           0
     62839 WT6      1258     TIP3     OH2      OT      -0.834000       15.9994           0
     62840 WT6      1258     TIP3     H1       HT       0.417000        1.0080           0
     62841 WT6      1258     TIP3     H2       HT       0.417000        1.0080           0
     62842 WT6      1263     TIP3     OH2      OT      -0.834000       15.9994           0
     62843 WT6      1263     TIP3     H1       HT       0.417000        1.0080           0
     62844 WT6      1263     TIP3     H2       HT       0.417000        1.0080           0
     62845 WT6      1265     TIP3     OH2      OT      -0.834000       15.9994           0
     62846 WT6      1265     TIP3     H1       HT       0.417000        1.0080           0
     62847 WT6      1265     TIP3     H2       HT       0.417000        1.0080           0
     62848 WT6      1266     TIP3     OH2      OT      -0.834000       15.9994           0
     62849 WT6      1266     TIP3     H1       HT       0.417000        1.0080           0
     62850 WT6      1266     TIP3     H2       HT       0.417000        1.0080           0
     62851 WT6      1267     TIP3     OH2      OT      -0.834000       15.9994           0
     62852 WT6      1267     TIP3     H1       HT       0.417000        1.0080           0
     62853 WT6      1267     TIP3     H2       HT       0.417000        1.0080           0
     62854 WT6      1269     TIP3     OH2      OT      -0.834000       15.9994           0
     62855 WT6      1269     TIP3     H1       HT       0.417000        1.0080           0
     62856 WT6      1269     TIP3     H2       HT       0.417000        1.0080           0
     62857 WT6      1271     TIP3     OH2      OT      -0.834000       15.9994           0
     62858 WT6      1271     TIP3     H1       HT       0.417000        1.0080           0
     62859 WT6      1271     TIP3     H2       HT       0.417000        1.0080           0
     62860 WT6      1281     TIP3     OH2      OT      -0.834000       15.9994           0
     62861 WT6      1281     TIP3     H1       HT       0.417000        1.0080           0
     62862 WT6      1281     TIP3     H2       HT       0.417000        1.0080           0
     62863 WT6      1284     TIP3     OH2      OT      -0.834000       15.9994           0
     62864 WT6      1284     TIP3     H1       HT       0.417000        1.0080           0
     62865 WT6      1284     TIP3     H2       HT       0.417000        1.0080           0
     62866 WT6      1285     TIP3     OH2      OT      -0.834000       15.9994           0
     62867 WT6      1285     TIP3     H1       HT       0.417000        1.0080           0
     62868 WT6      1285     TIP3     H2       HT       0.417000        1.0080           0
     62869 WT6      1290     TIP3     OH2      OT      -0.834000       15.9994           0
     62870 WT6      1290     TIP3     H1       HT       0.417000        1.0080           0
     62871 WT6      1290     TIP3     H2       HT       0.417000        1.0080           0
     62872 WT6      1301     TIP3     OH2      OT      -0.834000       15.9994           0
     62873 WT6      1301     TIP3     H1       HT       0.417000        1.0080           0
     62874 WT6      1301     TIP3     H2       HT       0.417000        1.0080           0
     62875 WT6      1303     TIP3     OH2      OT      -0.834000       15.9994           0
     62876 WT6      1303     TIP3     H1       HT       0.417000        1.0080           0
     62877 WT6      1303     TIP3     H2       HT       0.417000        1.0080           0
     62878 WT6      1306     TIP3     OH2      OT      -0.834000       15.9994           0
     62879 WT6      1306     TIP3     H1       HT       0.417000        1.0080           0
     62880 WT6      1306     TIP3     H2       HT       0.417000        1.0080           0
     62881 WT6      1307     TIP3     OH2      OT      -0.834000       15.9994           0
     62882 WT6      1307     TIP3     H1       HT       0.417000        1.0080           0
     62883 WT6      1307     TIP3     H2       HT       0.417000        1.0080           0
     62884 WT6      1308     TIP3     OH2      OT      -0.834000       15.9994           0
     62885 WT6      1308     TIP3     H1       HT       0.417000        1.0080           0
     62886 WT6      1308     TIP3     H2       HT       0.417000        1.0080           0
     62887 WT6      1324     TIP3     OH2      OT      -0.834000       15.9994           0
     62888 WT6      1324     TIP3     H1       HT       0.417000        1.0080           0
     62889 WT6      1324     TIP3     H2       HT       0.417000        1.0080           0
     62890 WT6      1326     TIP3     OH2      OT      -0.834000       15.9994           0
     62891 WT6      1326     TIP3     H1       HT       0.417000        1.0080           0
     62892 WT6      1326     TIP3     H2       HT       0.417000        1.0080           0
     62893 WT6      1327     TIP3     OH2      OT      -0.834000       15.9994           0
     62894 WT6      1327     TIP3     H1       HT       0.417000        1.0080           0
     62895 WT6      1327     TIP3     H2       HT       0.417000        1.0080           0
     62896 WT6      1328     TIP3     OH2      OT      -0.834000       15.9994           0
     62897 WT6      1328     TIP3     H1       HT       0.417000        1.0080           0
     62898 WT6      1328     TIP3     H2       HT       0.417000        1.0080           0
     62899 WT6      1329     TIP3     OH2      OT      -0.834000       15.9994           0
     62900 WT6      1329     TIP3     H1       HT       0.417000        1.0080           0
     62901 WT6      1329     TIP3     H2       HT       0.417000        1.0080           0
     62902 WT6      1330     TIP3     OH2      OT      -0.834000       15.9994           0
     62903 WT6      1330     TIP3     H1       HT       0.417000        1.0080           0
     62904 WT6      1330     TIP3     H2       HT       0.417000        1.0080           0
     62905 WT6      1333     TIP3     OH2      OT      -0.834000       15.9994           0
     62906 WT6      1333     TIP3     H1       HT       0.417000        1.0080           0
     62907 WT6      1333     TIP3     H2       HT       0.417000        1.0080           0
     62908 WT6      1344     TIP3     OH2      OT      -0.834000       15.9994           0
     62909 WT6      1344     TIP3     H1       HT       0.417000        1.0080           0
     62910 WT6      1344     TIP3     H2       HT       0.417000        1.0080           0
     62911 WT6      1345     TIP3     OH2      OT      -0.834000       15.9994           0
     62912 WT6      1345     TIP3     H1       HT       0.417000        1.0080           0
     62913 WT6      1345     TIP3     H2       HT       0.417000        1.0080           0
     62914 WT6      1346     TIP3     OH2      OT      -0.834000       15.9994           0
     62915 WT6      1346     TIP3     H1       HT       0.417000        1.0080           0
     62916 WT6      1346     TIP3     H2       HT       0.417000        1.0080           0
     62917 WT6      1347     TIP3     OH2      OT      -0.834000       15.9994           0
     62918 WT6      1347     TIP3     H1       HT       0.417000        1.0080           0
     62919 WT6      1347     TIP3     H2       HT       0.417000        1.0080           0
     62920 WT6      1349     TIP3     OH2      OT      -0.834000       15.9994           0
     62921 WT6      1349     TIP3     H1       HT       0.417000        1.0080           0
     62922 WT6      1349     TIP3     H2       HT       0.417000        1.0080           0
     62923 WT6      1352     TIP3     OH2      OT      -0.834000       15.9994           0
     62924 WT6      1352     TIP3     H1       HT       0.417000        1.0080           0
     62925 WT6      1352     TIP3     H2       HT       0.417000        1.0080           0
     62926 WT6      1353     TIP3     OH2      OT      -0.834000       15.9994           0
     62927 WT6      1353     TIP3     H1       HT       0.417000        1.0080           0
     62928 WT6      1353     TIP3     H2       HT       0.417000        1.0080           0
     62929 WT6      1354     TIP3     OH2      OT      -0.834000       15.9994           0
     62930 WT6      1354     TIP3     H1       HT       0.417000        1.0080           0
     62931 WT6      1354     TIP3     H2       HT       0.417000        1.0080           0
     62932 WT6      1355     TIP3     OH2      OT      -0.834000       15.9994           0
     62933 WT6      1355     TIP3     H1       HT       0.417000        1.0080           0
     62934 WT6      1355     TIP3     H2       HT       0.417000        1.0080           0
     62935 WT6      1367     TIP3     OH2      OT      -0.834000       15.9994           0
     62936 WT6      1367     TIP3     H1       HT       0.417000        1.0080           0
     62937 WT6      1367     TIP3     H2       HT       0.417000        1.0080           0
     62938 WT6      1368     TIP3     OH2      OT      -0.834000       15.9994           0
     62939 WT6      1368     TIP3     H1       HT       0.417000        1.0080           0
     62940 WT6      1368     TIP3     H2       HT       0.417000        1.0080           0
     62941 WT6      1370     TIP3     OH2      OT      -0.834000       15.9994           0
     62942 WT6      1370     TIP3     H1       HT       0.417000        1.0080           0
     62943 WT6      1370     TIP3     H2       HT       0.417000        1.0080           0
     62944 WT6      1371     TIP3     OH2      OT      -0.834000       15.9994           0
     62945 WT6      1371     TIP3     H1       HT       0.417000        1.0080           0
     62946 WT6      1371     TIP3     H2       HT       0.417000        1.0080           0
     62947 WT6      1373     TIP3     OH2      OT      -0.834000       15.9994           0
     62948 WT6      1373     TIP3     H1       HT       0.417000        1.0080           0
     62949 WT6      1373     TIP3     H2       HT       0.417000        1.0080           0
     62950 WT6      1374     TIP3     OH2      OT      -0.834000       15.9994           0
     62951 WT6      1374     TIP3     H1       HT       0.417000        1.0080           0
     62952 WT6      1374     TIP3     H2       HT       0.417000        1.0080           0
     62953 WT6      1376     TIP3     OH2      OT      -0.834000       15.9994           0
     62954 WT6      1376     TIP3     H1       HT       0.417000        1.0080           0
     62955 WT6      1376     TIP3     H2       HT       0.417000        1.0080           0
     62956 WT6      1387     TIP3     OH2      OT      -0.834000       15.9994           0
     62957 WT6      1387     TIP3     H1       HT       0.417000        1.0080           0
     62958 WT6      1387     TIP3     H2       HT       0.417000        1.0080           0
     62959 WT6      1388     TIP3     OH2      OT      -0.834000       15.9994           0
     62960 WT6      1388     TIP3     H1       HT       0.417000        1.0080           0
     62961 WT6      1388     TIP3     H2       HT       0.417000        1.0080           0
     62962 WT6      1389     TIP3     OH2      OT      -0.834000       15.9994           0
     62963 WT6      1389     TIP3     H1       HT       0.417000        1.0080           0
     62964 WT6      1389     TIP3     H2       HT       0.417000        1.0080           0
     62965 WT6      1392     TIP3     OH2      OT      -0.834000       15.9994           0
     62966 WT6      1392     TIP3     H1       HT       0.417000        1.0080           0
     62967 WT6      1392     TIP3     H2       HT       0.417000        1.0080           0
     62968 WT6      1407     TIP3     OH2      OT      -0.834000       15.9994           0
     62969 WT6      1407     TIP3     H1       HT       0.417000        1.0080           0
     62970 WT6      1407     TIP3     H2       HT       0.417000        1.0080           0
     62971 WT6      1408     TIP3     OH2      OT      -0.834000       15.9994           0
     62972 WT6      1408     TIP3     H1       HT       0.417000        1.0080           0
     62973 WT6      1408     TIP3     H2       HT       0.417000        1.0080           0
     62974 WT6      1411     TIP3     OH2      OT      -0.834000       15.9994           0
     62975 WT6      1411     TIP3     H1       HT       0.417000        1.0080           0
     62976 WT6      1411     TIP3     H2       HT       0.417000        1.0080           0
     62977 WT6      1412     TIP3     OH2      OT      -0.834000       15.9994           0
     62978 WT6      1412     TIP3     H1       HT       0.417000        1.0080           0
     62979 WT6      1412     TIP3     H2       HT       0.417000        1.0080           0
     62980 WT6      1413     TIP3     OH2      OT      -0.834000       15.9994           0
     62981 WT6      1413     TIP3     H1       HT       0.417000        1.0080           0
     62982 WT6      1413     TIP3     H2       HT       0.417000        1.0080           0
     62983 WT6      1414     TIP3     OH2      OT      -0.834000       15.9994           0
     62984 WT6      1414     TIP3     H1       HT       0.417000        1.0080           0
     62985 WT6      1414     TIP3     H2       HT       0.417000        1.0080           0
     62986 WT6      1415     TIP3     OH2      OT      -0.834000       15.9994           0
     62987 WT6      1415     TIP3     H1       HT       0.417000        1.0080           0
     62988 WT6      1415     TIP3     H2       HT       0.417000        1.0080           0
     62989 WT6      1418     TIP3     OH2      OT      -0.834000       15.9994           0
     62990 WT6      1418     TIP3     H1       HT       0.417000        1.0080           0
     62991 WT6      1418     TIP3     H2       HT       0.417000        1.0080           0
     62992 WT6      1425     TIP3     OH2      OT      -0.834000       15.9994           0
     62993 WT6      1425     TIP3     H1       HT       0.417000        1.0080           0
     62994 WT6      1425     TIP3     H2       HT       0.417000        1.0080           0
     62995 WT6      1427     TIP3     OH2      OT      -0.834000       15.9994           0
     62996 WT6      1427     TIP3     H1       HT       0.417000        1.0080           0
     62997 WT6      1427     TIP3     H2       HT       0.417000        1.0080           0
     62998 WT6      1428     TIP3     OH2      OT      -0.834000       15.9994           0
     62999 WT6      1428     TIP3     H1       HT       0.417000        1.0080           0
     63000 WT6      1428     TIP3     H2       HT       0.417000        1.0080           0
     63001 WT6      1429     TIP3     OH2      OT      -0.834000       15.9994           0
     63002 WT6      1429     TIP3     H1       HT       0.417000        1.0080           0
     63003 WT6      1429     TIP3     H2       HT       0.417000        1.0080           0
     63004 WT6      1430     TIP3     OH2      OT      -0.834000       15.9994           0
     63005 WT6      1430     TIP3     H1       HT       0.417000        1.0080           0
     63006 WT6      1430     TIP3     H2       HT       0.417000        1.0080           0
     63007 WT6      1432     TIP3     OH2      OT      -0.834000       15.9994           0
     63008 WT6      1432     TIP3     H1       HT       0.417000        1.0080           0
     63009 WT6      1432     TIP3     H2       HT       0.417000        1.0080           0
     63010 WT6      1433     TIP3     OH2      OT      -0.834000       15.9994           0
     63011 WT6      1433     TIP3     H1       HT       0.417000        1.0080           0
     63012 WT6      1433     TIP3     H2       HT       0.417000        1.0080           0
     63013 WT6      1435     TIP3     OH2      OT      -0.834000       15.9994           0
     63014 WT6      1435     TIP3     H1       HT       0.417000        1.0080           0
     63015 WT6      1435     TIP3     H2       HT       0.417000        1.0080           0
     63016 WT6      1440     TIP3     OH2      OT      -0.834000       15.9994           0
     63017 WT6      1440     TIP3     H1       HT       0.417000        1.0080           0
     63018 WT6      1440     TIP3     H2       HT       0.417000        1.0080           0
     63019 WT6      1450     TIP3     OH2      OT      -0.834000       15.9994           0
     63020 WT6      1450     TIP3     H1       HT       0.417000        1.0080           0
     63021 WT6      1450     TIP3     H2       HT       0.417000        1.0080           0
     63022 WT6      1451     TIP3     OH2      OT      -0.834000       15.9994           0
     63023 WT6      1451     TIP3     H1       HT       0.417000        1.0080           0
     63024 WT6      1451     TIP3     H2       HT       0.417000        1.0080           0
     63025 WT6      1452     TIP3     OH2      OT      -0.834000       15.9994           0
     63026 WT6      1452     TIP3     H1       HT       0.417000        1.0080           0
     63027 WT6      1452     TIP3     H2       HT       0.417000        1.0080           0
     63028 WT6      1453     TIP3     OH2      OT      -0.834000       15.9994           0
     63029 WT6      1453     TIP3     H1       HT       0.417000        1.0080           0
     63030 WT6      1453     TIP3     H2       HT       0.417000        1.0080           0
     63031 WT6      1454     TIP3     OH2      OT      -0.834000       15.9994           0
     63032 WT6      1454     TIP3     H1       HT       0.417000        1.0080           0
     63033 WT6      1454     TIP3     H2       HT       0.417000        1.0080           0
     63034 WT6      1455     TIP3     OH2      OT      -0.834000       15.9994           0
     63035 WT6      1455     TIP3     H1       HT       0.417000        1.0080           0
     63036 WT6      1455     TIP3     H2       HT       0.417000        1.0080           0
     63037 WT6      1457     TIP3     OH2      OT      -0.834000       15.9994           0
     63038 WT6      1457     TIP3     H1       HT       0.417000        1.0080           0
     63039 WT6      1457     TIP3     H2       HT       0.417000        1.0080           0
     63040 WT6      1458     TIP3     OH2      OT      -0.834000       15.9994           0
     63041 WT6      1458     TIP3     H1       HT       0.417000        1.0080           0
     63042 WT6      1458     TIP3     H2       HT       0.417000        1.0080           0
     63043 WT6      1459     TIP3     OH2      OT      -0.834000       15.9994           0
     63044 WT6      1459     TIP3     H1       HT       0.417000        1.0080           0
     63045 WT6      1459     TIP3     H2       HT       0.417000        1.0080           0
     63046 WT6      1466     TIP3     OH2      OT      -0.834000       15.9994           0
     63047 WT6      1466     TIP3     H1       HT       0.417000        1.0080           0
     63048 WT6      1466     TIP3     H2       HT       0.417000        1.0080           0
     63049 WT6      1471     TIP3     OH2      OT      -0.834000       15.9994           0
     63050 WT6      1471     TIP3     H1       HT       0.417000        1.0080           0
     63051 WT6      1471     TIP3     H2       HT       0.417000        1.0080           0
     63052 WT6      1474     TIP3     OH2      OT      -0.834000       15.9994           0
     63053 WT6      1474     TIP3     H1       HT       0.417000        1.0080           0
     63054 WT6      1474     TIP3     H2       HT       0.417000        1.0080           0
     63055 WT6      1475     TIP3     OH2      OT      -0.834000       15.9994           0
     63056 WT6      1475     TIP3     H1       HT       0.417000        1.0080           0
     63057 WT6      1475     TIP3     H2       HT       0.417000        1.0080           0
     63058 WT6      1477     TIP3     OH2      OT      -0.834000       15.9994           0
     63059 WT6      1477     TIP3     H1       HT       0.417000        1.0080           0
     63060 WT6      1477     TIP3     H2       HT       0.417000        1.0080           0
     63061 WT6      1478     TIP3     OH2      OT      -0.834000       15.9994           0
     63062 WT6      1478     TIP3     H1       HT       0.417000        1.0080           0
     63063 WT6      1478     TIP3     H2       HT       0.417000        1.0080           0
     63064 WT6      1480     TIP3     OH2      OT      -0.834000       15.9994           0
     63065 WT6      1480     TIP3     H1       HT       0.417000        1.0080           0
     63066 WT6      1480     TIP3     H2       HT       0.417000        1.0080           0
     63067 WT6      1492     TIP3     OH2      OT      -0.834000       15.9994           0
     63068 WT6      1492     TIP3     H1       HT       0.417000        1.0080           0
     63069 WT6      1492     TIP3     H2       HT       0.417000        1.0080           0
     63070 WT6      1493     TIP3     OH2      OT      -0.834000       15.9994           0
     63071 WT6      1493     TIP3     H1       HT       0.417000        1.0080           0
     63072 WT6      1493     TIP3     H2       HT       0.417000        1.0080           0
     63073 WT6      1494     TIP3     OH2      OT      -0.834000       15.9994           0
     63074 WT6      1494     TIP3     H1       HT       0.417000        1.0080           0
     63075 WT6      1494     TIP3     H2       HT       0.417000        1.0080           0
     63076 WT6      1497     TIP3     OH2      OT      -0.834000       15.9994           0
     63077 WT6      1497     TIP3     H1       HT       0.417000        1.0080           0
     63078 WT6      1497     TIP3     H2       HT       0.417000        1.0080           0
     63079 WT6      1498     TIP3     OH2      OT      -0.834000       15.9994           0
     63080 WT6      1498     TIP3     H1       HT       0.417000        1.0080           0
     63081 WT6      1498     TIP3     H2       HT       0.417000        1.0080           0
     63082 WT6      1499     TIP3     OH2      OT      -0.834000       15.9994           0
     63083 WT6      1499     TIP3     H1       HT       0.417000        1.0080           0
     63084 WT6      1499     TIP3     H2       HT       0.417000        1.0080           0
     63085 WT6      1512     TIP3     OH2      OT      -0.834000       15.9994           0
     63086 WT6      1512     TIP3     H1       HT       0.417000        1.0080           0
     63087 WT6      1512     TIP3     H2       HT       0.417000        1.0080           0
     63088 WT6      1514     TIP3     OH2      OT      -0.834000       15.9994           0
     63089 WT6      1514     TIP3     H1       HT       0.417000        1.0080           0
     63090 WT6      1514     TIP3     H2       HT       0.417000        1.0080           0
     63091 WT6      1515     TIP3     OH2      OT      -0.834000       15.9994           0
     63092 WT6      1515     TIP3     H1       HT       0.417000        1.0080           0
     63093 WT6      1515     TIP3     H2       HT       0.417000        1.0080           0
     63094 WT6      1519     TIP3     OH2      OT      -0.834000       15.9994           0
     63095 WT6      1519     TIP3     H1       HT       0.417000        1.0080           0
     63096 WT6      1519     TIP3     H2       HT       0.417000        1.0080           0
     63097 WT6      1531     TIP3     OH2      OT      -0.834000       15.9994           0
     63098 WT6      1531     TIP3     H1       HT       0.417000        1.0080           0
     63099 WT6      1531     TIP3     H2       HT       0.417000        1.0080           0
     63100 WT6      1532     TIP3     OH2      OT      -0.834000       15.9994           0
     63101 WT6      1532     TIP3     H1       HT       0.417000        1.0080           0
     63102 WT6      1532     TIP3     H2       HT       0.417000        1.0080           0
     63103 WT6      1534     TIP3     OH2      OT      -0.834000       15.9994           0
     63104 WT6      1534     TIP3     H1       HT       0.417000        1.0080           0
     63105 WT6      1534     TIP3     H2       HT       0.417000        1.0080           0
     63106 WT6      1535     TIP3     OH2      OT      -0.834000       15.9994           0
     63107 WT6      1535     TIP3     H1       HT       0.417000        1.0080           0
     63108 WT6      1535     TIP3     H2       HT       0.417000        1.0080           0
     63109 WT6      1536     TIP3     OH2      OT      -0.834000       15.9994           0
     63110 WT6      1536     TIP3     H1       HT       0.417000        1.0080           0
     63111 WT6      1536     TIP3     H2       HT       0.417000        1.0080           0
     63112 WT6      1537     TIP3     OH2      OT      -0.834000       15.9994           0
     63113 WT6      1537     TIP3     H1       HT       0.417000        1.0080           0
     63114 WT6      1537     TIP3     H2       HT       0.417000        1.0080           0
     63115 WT6      1538     TIP3     OH2      OT      -0.834000       15.9994           0
     63116 WT6      1538     TIP3     H1       HT       0.417000        1.0080           0
     63117 WT6      1538     TIP3     H2       HT       0.417000        1.0080           0
     63118 WT6      1540     TIP3     OH2      OT      -0.834000       15.9994           0
     63119 WT6      1540     TIP3     H1       HT       0.417000        1.0080           0
     63120 WT6      1540     TIP3     H2       HT       0.417000        1.0080           0
     63121 WT6      1552     TIP3     OH2      OT      -0.834000       15.9994           0
     63122 WT6      1552     TIP3     H1       HT       0.417000        1.0080           0
     63123 WT6      1552     TIP3     H2       HT       0.417000        1.0080           0
     63124 WT6      1555     TIP3     OH2      OT      -0.834000       15.9994           0
     63125 WT6      1555     TIP3     H1       HT       0.417000        1.0080           0
     63126 WT6      1555     TIP3     H2       HT       0.417000        1.0080           0
     63127 WT6      1559     TIP3     OH2      OT      -0.834000       15.9994           0
     63128 WT6      1559     TIP3     H1       HT       0.417000        1.0080           0
     63129 WT6      1559     TIP3     H2       HT       0.417000        1.0080           0
     63130 WT6      1560     TIP3     OH2      OT      -0.834000       15.9994           0
     63131 WT6      1560     TIP3     H1       HT       0.417000        1.0080           0
     63132 WT6      1560     TIP3     H2       HT       0.417000        1.0080           0
     63133 WT6      1563     TIP3     OH2      OT      -0.834000       15.9994           0
     63134 WT6      1563     TIP3     H1       HT       0.417000        1.0080           0
     63135 WT6      1563     TIP3     H2       HT       0.417000        1.0080           0
     63136 WT6      1573     TIP3     OH2      OT      -0.834000       15.9994           0
     63137 WT6      1573     TIP3     H1       HT       0.417000        1.0080           0
     63138 WT6      1573     TIP3     H2       HT       0.417000        1.0080           0
     63139 WT6      1576     TIP3     OH2      OT      -0.834000       15.9994           0
     63140 WT6      1576     TIP3     H1       HT       0.417000        1.0080           0
     63141 WT6      1576     TIP3     H2       HT       0.417000        1.0080           0
     63142 WT6      1577     TIP3     OH2      OT      -0.834000       15.9994           0
     63143 WT6      1577     TIP3     H1       HT       0.417000        1.0080           0
     63144 WT6      1577     TIP3     H2       HT       0.417000        1.0080           0
     63145 WT6      1578     TIP3     OH2      OT      -0.834000       15.9994           0
     63146 WT6      1578     TIP3     H1       HT       0.417000        1.0080           0
     63147 WT6      1578     TIP3     H2       HT       0.417000        1.0080           0
     63148 WT6      1581     TIP3     OH2      OT      -0.834000       15.9994           0
     63149 WT6      1581     TIP3     H1       HT       0.417000        1.0080           0
     63150 WT6      1581     TIP3     H2       HT       0.417000        1.0080           0
     63151 WT6      1582     TIP3     OH2      OT      -0.834000       15.9994           0
     63152 WT6      1582     TIP3     H1       HT       0.417000        1.0080           0
     63153 WT6      1582     TIP3     H2       HT       0.417000        1.0080           0
     63154 WT6      1584     TIP3     OH2      OT      -0.834000       15.9994           0
     63155 WT6      1584     TIP3     H1       HT       0.417000        1.0080           0
     63156 WT6      1584     TIP3     H2       HT       0.417000        1.0080           0
     63157 WT6      1599     TIP3     OH2      OT      -0.834000       15.9994           0
     63158 WT6      1599     TIP3     H1       HT       0.417000        1.0080           0
     63159 WT6      1599     TIP3     H2       HT       0.417000        1.0080           0
     63160 WT6      1600     TIP3     OH2      OT      -0.834000       15.9994           0
     63161 WT6      1600     TIP3     H1       HT       0.417000        1.0080           0
     63162 WT6      1600     TIP3     H2       HT       0.417000        1.0080           0
     63163 WT6      1601     TIP3     OH2      OT      -0.834000       15.9994           0
     63164 WT6      1601     TIP3     H1       HT       0.417000        1.0080           0
     63165 WT6      1601     TIP3     H2       HT       0.417000        1.0080           0
     63166 WT6      1604     TIP3     OH2      OT      -0.834000       15.9994           0
     63167 WT6      1604     TIP3     H1       HT       0.417000        1.0080           0
     63168 WT6      1604     TIP3     H2       HT       0.417000        1.0080           0
     63169 WT6      1605     TIP3     OH2      OT      -0.834000       15.9994           0
     63170 WT6      1605     TIP3     H1       HT       0.417000        1.0080           0
     63171 WT6      1605     TIP3     H2       HT       0.417000        1.0080           0
     63172 WT6      1611     TIP3     OH2      OT      -0.834000       15.9994           0
     63173 WT6      1611     TIP3     H1       HT       0.417000        1.0080           0
     63174 WT6      1611     TIP3     H2       HT       0.417000        1.0080           0
     63175 WT6      1616     TIP3     OH2      OT      -0.834000       15.9994           0
     63176 WT6      1616     TIP3     H1       HT       0.417000        1.0080           0
     63177 WT6      1616     TIP3     H2       HT       0.417000        1.0080           0
     63178 WT6      1618     TIP3     OH2      OT      -0.834000       15.9994           0
     63179 WT6      1618     TIP3     H1       HT       0.417000        1.0080           0
     63180 WT6      1618     TIP3     H2       HT       0.417000        1.0080           0
     63181 WT6      1620     TIP3     OH2      OT      -0.834000       15.9994           0
     63182 WT6      1620     TIP3     H1       HT       0.417000        1.0080           0
     63183 WT6      1620     TIP3     H2       HT       0.417000        1.0080           0
     63184 WT6      1622     TIP3     OH2      OT      -0.834000       15.9994           0
     63185 WT6      1622     TIP3     H1       HT       0.417000        1.0080           0
     63186 WT6      1622     TIP3     H2       HT       0.417000        1.0080           0
     63187 WT6      1623     TIP3     OH2      OT      -0.834000       15.9994           0
     63188 WT6      1623     TIP3     H1       HT       0.417000        1.0080           0
     63189 WT6      1623     TIP3     H2       HT       0.417000        1.0080           0
     63190 WT6      1624     TIP3     OH2      OT      -0.834000       15.9994           0
     63191 WT6      1624     TIP3     H1       HT       0.417000        1.0080           0
     63192 WT6      1624     TIP3     H2       HT       0.417000        1.0080           0
     63193 WT6      1625     TIP3     OH2      OT      -0.834000       15.9994           0
     63194 WT6      1625     TIP3     H1       HT       0.417000        1.0080           0
     63195 WT6      1625     TIP3     H2       HT       0.417000        1.0080           0
     63196 WT6      1628     TIP3     OH2      OT      -0.834000       15.9994           0
     63197 WT6      1628     TIP3     H1       HT       0.417000        1.0080           0
     63198 WT6      1628     TIP3     H2       HT       0.417000        1.0080           0
     63199 WT6      1639     TIP3     OH2      OT      -0.834000       15.9994           0
     63200 WT6      1639     TIP3     H1       HT       0.417000        1.0080           0
     63201 WT6      1639     TIP3     H2       HT       0.417000        1.0080           0
     63202 WT6      1643     TIP3     OH2      OT      -0.834000       15.9994           0
     63203 WT6      1643     TIP3     H1       HT       0.417000        1.0080           0
     63204 WT6      1643     TIP3     H2       HT       0.417000        1.0080           0
     63205 WT6      1645     TIP3     OH2      OT      -0.834000       15.9994           0
     63206 WT6      1645     TIP3     H1       HT       0.417000        1.0080           0
     63207 WT6      1645     TIP3     H2       HT       0.417000        1.0080           0
     63208 WT6      1647     TIP3     OH2      OT      -0.834000       15.9994           0
     63209 WT6      1647     TIP3     H1       HT       0.417000        1.0080           0
     63210 WT6      1647     TIP3     H2       HT       0.417000        1.0080           0
     63211 WT6      1648     TIP3     OH2      OT      -0.834000       15.9994           0
     63212 WT6      1648     TIP3     H1       HT       0.417000        1.0080           0
     63213 WT6      1648     TIP3     H2       HT       0.417000        1.0080           0
     63214 WT6      1656     TIP3     OH2      OT      -0.834000       15.9994           0
     63215 WT6      1656     TIP3     H1       HT       0.417000        1.0080           0
     63216 WT6      1656     TIP3     H2       HT       0.417000        1.0080           0
     63217 WT6      1658     TIP3     OH2      OT      -0.834000       15.9994           0
     63218 WT6      1658     TIP3     H1       HT       0.417000        1.0080           0
     63219 WT6      1658     TIP3     H2       HT       0.417000        1.0080           0
     63220 WT6      1659     TIP3     OH2      OT      -0.834000       15.9994           0
     63221 WT6      1659     TIP3     H1       HT       0.417000        1.0080           0
     63222 WT6      1659     TIP3     H2       HT       0.417000        1.0080           0
     63223 WT6      1661     TIP3     OH2      OT      -0.834000       15.9994           0
     63224 WT6      1661     TIP3     H1       HT       0.417000        1.0080           0
     63225 WT6      1661     TIP3     H2       HT       0.417000        1.0080           0
     63226 WT6      1663     TIP3     OH2      OT      -0.834000       15.9994           0
     63227 WT6      1663     TIP3     H1       HT       0.417000        1.0080           0
     63228 WT6      1663     TIP3     H2       HT       0.417000        1.0080           0
     63229 WT6      1664     TIP3     OH2      OT      -0.834000       15.9994           0
     63230 WT6      1664     TIP3     H1       HT       0.417000        1.0080           0
     63231 WT6      1664     TIP3     H2       HT       0.417000        1.0080           0
     63232 WT6      1667     TIP3     OH2      OT      -0.834000       15.9994           0
     63233 WT6      1667     TIP3     H1       HT       0.417000        1.0080           0
     63234 WT6      1667     TIP3     H2       HT       0.417000        1.0080           0
     63235 WT6      1681     TIP3     OH2      OT      -0.834000       15.9994           0
     63236 WT6      1681     TIP3     H1       HT       0.417000        1.0080           0
     63237 WT6      1681     TIP3     H2       HT       0.417000        1.0080           0
     63238 WT6      1683     TIP3     OH2      OT      -0.834000       15.9994           0
     63239 WT6      1683     TIP3     H1       HT       0.417000        1.0080           0
     63240 WT6      1683     TIP3     H2       HT       0.417000        1.0080           0
     63241 WT6      1686     TIP3     OH2      OT      -0.834000       15.9994           0
     63242 WT6      1686     TIP3     H1       HT       0.417000        1.0080           0
     63243 WT6      1686     TIP3     H2       HT       0.417000        1.0080           0
     63244 WT6      1687     TIP3     OH2      OT      -0.834000       15.9994           0
     63245 WT6      1687     TIP3     H1       HT       0.417000        1.0080           0
     63246 WT6      1687     TIP3     H2       HT       0.417000        1.0080           0
     63247 WT6      1688     TIP3     OH2      OT      -0.834000       15.9994           0
     63248 WT6      1688     TIP3     H1       HT       0.417000        1.0080           0
     63249 WT6      1688     TIP3     H2       HT       0.417000        1.0080           0
     63250 WT6      1689     TIP3     OH2      OT      -0.834000       15.9994           0
     63251 WT6      1689     TIP3     H1       HT       0.417000        1.0080           0
     63252 WT6      1689     TIP3     H2       HT       0.417000        1.0080           0
     63253 WT6      1691     TIP3     OH2      OT      -0.834000       15.9994           0
     63254 WT6      1691     TIP3     H1       HT       0.417000        1.0080           0
     63255 WT6      1691     TIP3     H2       HT       0.417000        1.0080           0
     63256 WT6      1701     TIP3     OH2      OT      -0.834000       15.9994           0
     63257 WT6      1701     TIP3     H1       HT       0.417000        1.0080           0
     63258 WT6      1701     TIP3     H2       HT       0.417000        1.0080           0
     63259 WT6      1702     TIP3     OH2      OT      -0.834000       15.9994           0
     63260 WT6      1702     TIP3     H1       HT       0.417000        1.0080           0
     63261 WT6      1702     TIP3     H2       HT       0.417000        1.0080           0
     63262 WT6      1704     TIP3     OH2      OT      -0.834000       15.9994           0
     63263 WT6      1704     TIP3     H1       HT       0.417000        1.0080           0
     63264 WT6      1704     TIP3     H2       HT       0.417000        1.0080           0
     63265 WT6      1706     TIP3     OH2      OT      -0.834000       15.9994           0
     63266 WT6      1706     TIP3     H1       HT       0.417000        1.0080           0
     63267 WT6      1706     TIP3     H2       HT       0.417000        1.0080           0
     63268 WT6      1707     TIP3     OH2      OT      -0.834000       15.9994           0
     63269 WT6      1707     TIP3     H1       HT       0.417000        1.0080           0
     63270 WT6      1707     TIP3     H2       HT       0.417000        1.0080           0
     63271 WT6      1723     TIP3     OH2      OT      -0.834000       15.9994           0
     63272 WT6      1723     TIP3     H1       HT       0.417000        1.0080           0
     63273 WT6      1723     TIP3     H2       HT       0.417000        1.0080           0
     63274 WT6      1725     TIP3     OH2      OT      -0.834000       15.9994           0
     63275 WT6      1725     TIP3     H1       HT       0.417000        1.0080           0
     63276 WT6      1725     TIP3     H2       HT       0.417000        1.0080           0
     63277 WT6      1728     TIP3     OH2      OT      -0.834000       15.9994           0
     63278 WT6      1728     TIP3     H1       HT       0.417000        1.0080           0
     63279 WT6      1728     TIP3     H2       HT       0.417000        1.0080           0
     63280 WT6      1729     TIP3     OH2      OT      -0.834000       15.9994           0
     63281 WT6      1729     TIP3     H1       HT       0.417000        1.0080           0
     63282 WT6      1729     TIP3     H2       HT       0.417000        1.0080           0
     63283 WT6      1730     TIP3     OH2      OT      -0.834000       15.9994           0
     63284 WT6      1730     TIP3     H1       HT       0.417000        1.0080           0
     63285 WT6      1730     TIP3     H2       HT       0.417000        1.0080           0
     63286 WT6      1731     TIP3     OH2      OT      -0.834000       15.9994           0
     63287 WT6      1731     TIP3     H1       HT       0.417000        1.0080           0
     63288 WT6      1731     TIP3     H2       HT       0.417000        1.0080           0
     63289 WT6      1733     TIP3     OH2      OT      -0.834000       15.9994           0
     63290 WT6      1733     TIP3     H1       HT       0.417000        1.0080           0
     63291 WT6      1733     TIP3     H2       HT       0.417000        1.0080           0
     63292 WT6      1738     TIP3     OH2      OT      -0.834000       15.9994           0
     63293 WT6      1738     TIP3     H1       HT       0.417000        1.0080           0
     63294 WT6      1738     TIP3     H2       HT       0.417000        1.0080           0
     63295 WT6      1744     TIP3     OH2      OT      -0.834000       15.9994           0
     63296 WT6      1744     TIP3     H1       HT       0.417000        1.0080           0
     63297 WT6      1744     TIP3     H2       HT       0.417000        1.0080           0
     63298 WT6      1746     TIP3     OH2      OT      -0.834000       15.9994           0
     63299 WT6      1746     TIP3     H1       HT       0.417000        1.0080           0
     63300 WT6      1746     TIP3     H2       HT       0.417000        1.0080           0
     63301 WT6      1749     TIP3     OH2      OT      -0.834000       15.9994           0
     63302 WT6      1749     TIP3     H1       HT       0.417000        1.0080           0
     63303 WT6      1749     TIP3     H2       HT       0.417000        1.0080           0
     63304 WT6      1750     TIP3     OH2      OT      -0.834000       15.9994           0
     63305 WT6      1750     TIP3     H1       HT       0.417000        1.0080           0
     63306 WT6      1750     TIP3     H2       HT       0.417000        1.0080           0
     63307 WT6      1751     TIP3     OH2      OT      -0.834000       15.9994           0
     63308 WT6      1751     TIP3     H1       HT       0.417000        1.0080           0
     63309 WT6      1751     TIP3     H2       HT       0.417000        1.0080           0
     63310 WT6      1752     TIP3     OH2      OT      -0.834000       15.9994           0
     63311 WT6      1752     TIP3     H1       HT       0.417000        1.0080           0
     63312 WT6      1752     TIP3     H2       HT       0.417000        1.0080           0
     63313 WT6      1764     TIP3     OH2      OT      -0.834000       15.9994           0
     63314 WT6      1764     TIP3     H1       HT       0.417000        1.0080           0
     63315 WT6      1764     TIP3     H2       HT       0.417000        1.0080           0
     63316 WT6      1766     TIP3     OH2      OT      -0.834000       15.9994           0
     63317 WT6      1766     TIP3     H1       HT       0.417000        1.0080           0
     63318 WT6      1766     TIP3     H2       HT       0.417000        1.0080           0
     63319 WT6      1767     TIP3     OH2      OT      -0.834000       15.9994           0
     63320 WT6      1767     TIP3     H1       HT       0.417000        1.0080           0
     63321 WT6      1767     TIP3     H2       HT       0.417000        1.0080           0
     63322 WT6      1769     TIP3     OH2      OT      -0.834000       15.9994           0
     63323 WT6      1769     TIP3     H1       HT       0.417000        1.0080           0
     63324 WT6      1769     TIP3     H2       HT       0.417000        1.0080           0
     63325 WT6      1770     TIP3     OH2      OT      -0.834000       15.9994           0
     63326 WT6      1770     TIP3     H1       HT       0.417000        1.0080           0
     63327 WT6      1770     TIP3     H2       HT       0.417000        1.0080           0
     63328 WT6      1771     TIP3     OH2      OT      -0.834000       15.9994           0
     63329 WT6      1771     TIP3     H1       HT       0.417000        1.0080           0
     63330 WT6      1771     TIP3     H2       HT       0.417000        1.0080           0
     63331 WT6      1773     TIP3     OH2      OT      -0.834000       15.9994           0
     63332 WT6      1773     TIP3     H1       HT       0.417000        1.0080           0
     63333 WT6      1773     TIP3     H2       HT       0.417000        1.0080           0
     63334 WT6      1784     TIP3     OH2      OT      -0.834000       15.9994           0
     63335 WT6      1784     TIP3     H1       HT       0.417000        1.0080           0
     63336 WT6      1784     TIP3     H2       HT       0.417000        1.0080           0
     63337 WT6      1785     TIP3     OH2      OT      -0.834000       15.9994           0
     63338 WT6      1785     TIP3     H1       HT       0.417000        1.0080           0
     63339 WT6      1785     TIP3     H2       HT       0.417000        1.0080           0
     63340 WT6      1788     TIP3     OH2      OT      -0.834000       15.9994           0
     63341 WT6      1788     TIP3     H1       HT       0.417000        1.0080           0
     63342 WT6      1788     TIP3     H2       HT       0.417000        1.0080           0
     63343 WT6      1789     TIP3     OH2      OT      -0.834000       15.9994           0
     63344 WT6      1789     TIP3     H1       HT       0.417000        1.0080           0
     63345 WT6      1789     TIP3     H2       HT       0.417000        1.0080           0
     63346 WT6      1790     TIP3     OH2      OT      -0.834000       15.9994           0
     63347 WT6      1790     TIP3     H1       HT       0.417000        1.0080           0
     63348 WT6      1790     TIP3     H2       HT       0.417000        1.0080           0
     63349 WT6      1791     TIP3     OH2      OT      -0.834000       15.9994           0
     63350 WT6      1791     TIP3     H1       HT       0.417000        1.0080           0
     63351 WT6      1791     TIP3     H2       HT       0.417000        1.0080           0
     63352 WT6      1792     TIP3     OH2      OT      -0.834000       15.9994           0
     63353 WT6      1792     TIP3     H1       HT       0.417000        1.0080           0
     63354 WT6      1792     TIP3     H2       HT       0.417000        1.0080           0
     63355 WT6      1793     TIP3     OH2      OT      -0.834000       15.9994           0
     63356 WT6      1793     TIP3     H1       HT       0.417000        1.0080           0
     63357 WT6      1793     TIP3     H2       HT       0.417000        1.0080           0
     63358 WT6      1795     TIP3     OH2      OT      -0.834000       15.9994           0
     63359 WT6      1795     TIP3     H1       HT       0.417000        1.0080           0
     63360 WT6      1795     TIP3     H2       HT       0.417000        1.0080           0
     63361 WT6      1796     TIP3     OH2      OT      -0.834000       15.9994           0
     63362 WT6      1796     TIP3     H1       HT       0.417000        1.0080           0
     63363 WT6      1796     TIP3     H2       HT       0.417000        1.0080           0
     63364 WT6      1813     TIP3     OH2      OT      -0.834000       15.9994           0
     63365 WT6      1813     TIP3     H1       HT       0.417000        1.0080           0
     63366 WT6      1813     TIP3     H2       HT       0.417000        1.0080           0
     63367 WT6      1814     TIP3     OH2      OT      -0.834000       15.9994           0
     63368 WT6      1814     TIP3     H1       HT       0.417000        1.0080           0
     63369 WT6      1814     TIP3     H2       HT       0.417000        1.0080           0
     63370 WT6      1816     TIP3     OH2      OT      -0.834000       15.9994           0
     63371 WT6      1816     TIP3     H1       HT       0.417000        1.0080           0
     63372 WT6      1816     TIP3     H2       HT       0.417000        1.0080           0
     63373 WT6      1824     TIP3     OH2      OT      -0.834000       15.9994           0
     63374 WT6      1824     TIP3     H1       HT       0.417000        1.0080           0
     63375 WT6      1824     TIP3     H2       HT       0.417000        1.0080           0
     63376 WT6      1829     TIP3     OH2      OT      -0.834000       15.9994           0
     63377 WT6      1829     TIP3     H1       HT       0.417000        1.0080           0
     63378 WT6      1829     TIP3     H2       HT       0.417000        1.0080           0
     63379 WT6      1830     TIP3     OH2      OT      -0.834000       15.9994           0
     63380 WT6      1830     TIP3     H1       HT       0.417000        1.0080           0
     63381 WT6      1830     TIP3     H2       HT       0.417000        1.0080           0
     63382 WT6      1831     TIP3     OH2      OT      -0.834000       15.9994           0
     63383 WT6      1831     TIP3     H1       HT       0.417000        1.0080           0
     63384 WT6      1831     TIP3     H2       HT       0.417000        1.0080           0
     63385 WT6      1832     TIP3     OH2      OT      -0.834000       15.9994           0
     63386 WT6      1832     TIP3     H1       HT       0.417000        1.0080           0
     63387 WT6      1832     TIP3     H2       HT       0.417000        1.0080           0
     63388 WT6      1835     TIP3     OH2      OT      -0.834000       15.9994           0
     63389 WT6      1835     TIP3     H1       HT       0.417000        1.0080           0
     63390 WT6      1835     TIP3     H2       HT       0.417000        1.0080           0
     63391 WT6      1836     TIP3     OH2      OT      -0.834000       15.9994           0
     63392 WT6      1836     TIP3     H1       HT       0.417000        1.0080           0
     63393 WT6      1836     TIP3     H2       HT       0.417000        1.0080           0
     63394 WT6      1837     TIP3     OH2      OT      -0.834000       15.9994           0
     63395 WT6      1837     TIP3     H1       HT       0.417000        1.0080           0
     63396 WT6      1837     TIP3     H2       HT       0.417000        1.0080           0
     63397 WT6      1838     TIP3     OH2      OT      -0.834000       15.9994           0
     63398 WT6      1838     TIP3     H1       HT       0.417000        1.0080           0
     63399 WT6      1838     TIP3     H2       HT       0.417000        1.0080           0
     63400 WT6      1847     TIP3     OH2      OT      -0.834000       15.9994           0
     63401 WT6      1847     TIP3     H1       HT       0.417000        1.0080           0
     63402 WT6      1847     TIP3     H2       HT       0.417000        1.0080           0
     63403 WT6      1849     TIP3     OH2      OT      -0.834000       15.9994           0
     63404 WT6      1849     TIP3     H1       HT       0.417000        1.0080           0
     63405 WT6      1849     TIP3     H2       HT       0.417000        1.0080           0
     63406 WT6      1850     TIP3     OH2      OT      -0.834000       15.9994           0
     63407 WT6      1850     TIP3     H1       HT       0.417000        1.0080           0
     63408 WT6      1850     TIP3     H2       HT       0.417000        1.0080           0
     63409 WT6      1851     TIP3     OH2      OT      -0.834000       15.9994           0
     63410 WT6      1851     TIP3     H1       HT       0.417000        1.0080           0
     63411 WT6      1851     TIP3     H2       HT       0.417000        1.0080           0
     63412 WT6      1852     TIP3     OH2      OT      -0.834000       15.9994           0
     63413 WT6      1852     TIP3     H1       HT       0.417000        1.0080           0
     63414 WT6      1852     TIP3     H2       HT       0.417000        1.0080           0
     63415 WT6      1853     TIP3     OH2      OT      -0.834000       15.9994           0
     63416 WT6      1853     TIP3     H1       HT       0.417000        1.0080           0
     63417 WT6      1853     TIP3     H2       HT       0.417000        1.0080           0
     63418 WT6      1854     TIP3     OH2      OT      -0.834000       15.9994           0
     63419 WT6      1854     TIP3     H1       HT       0.417000        1.0080           0
     63420 WT6      1854     TIP3     H2       HT       0.417000        1.0080           0
     63421 WT6      1856     TIP3     OH2      OT      -0.834000       15.9994           0
     63422 WT6      1856     TIP3     H1       HT       0.417000        1.0080           0
     63423 WT6      1856     TIP3     H2       HT       0.417000        1.0080           0
     63424 WT6      1861     TIP3     OH2      OT      -0.834000       15.9994           0
     63425 WT6      1861     TIP3     H1       HT       0.417000        1.0080           0
     63426 WT6      1861     TIP3     H2       HT       0.417000        1.0080           0
     63427 WT6      1870     TIP3     OH2      OT      -0.834000       15.9994           0
     63428 WT6      1870     TIP3     H1       HT       0.417000        1.0080           0
     63429 WT6      1870     TIP3     H2       HT       0.417000        1.0080           0
     63430 WT6      1871     TIP3     OH2      OT      -0.834000       15.9994           0
     63431 WT6      1871     TIP3     H1       HT       0.417000        1.0080           0
     63432 WT6      1871     TIP3     H2       HT       0.417000        1.0080           0
     63433 WT6      1873     TIP3     OH2      OT      -0.834000       15.9994           0
     63434 WT6      1873     TIP3     H1       HT       0.417000        1.0080           0
     63435 WT6      1873     TIP3     H2       HT       0.417000        1.0080           0
     63436 WT6      1874     TIP3     OH2      OT      -0.834000       15.9994           0
     63437 WT6      1874     TIP3     H1       HT       0.417000        1.0080           0
     63438 WT6      1874     TIP3     H2       HT       0.417000        1.0080           0
     63439 WT6      1875     TIP3     OH2      OT      -0.834000       15.9994           0
     63440 WT6      1875     TIP3     H1       HT       0.417000        1.0080           0
     63441 WT6      1875     TIP3     H2       HT       0.417000        1.0080           0
     63442 WT6      1876     TIP3     OH2      OT      -0.834000       15.9994           0
     63443 WT6      1876     TIP3     H1       HT       0.417000        1.0080           0
     63444 WT6      1876     TIP3     H2       HT       0.417000        1.0080           0
     63445 WT6      1877     TIP3     OH2      OT      -0.834000       15.9994           0
     63446 WT6      1877     TIP3     H1       HT       0.417000        1.0080           0
     63447 WT6      1877     TIP3     H2       HT       0.417000        1.0080           0
     63448 WT6      1878     TIP3     OH2      OT      -0.834000       15.9994           0
     63449 WT6      1878     TIP3     H1       HT       0.417000        1.0080           0
     63450 WT6      1878     TIP3     H2       HT       0.417000        1.0080           0
     63451 WT6      1881     TIP3     OH2      OT      -0.834000       15.9994           0
     63452 WT6      1881     TIP3     H1       HT       0.417000        1.0080           0
     63453 WT6      1881     TIP3     H2       HT       0.417000        1.0080           0
     63454 WT6      1891     TIP3     OH2      OT      -0.834000       15.9994           0
     63455 WT6      1891     TIP3     H1       HT       0.417000        1.0080           0
     63456 WT6      1891     TIP3     H2       HT       0.417000        1.0080           0
     63457 WT6      1892     TIP3     OH2      OT      -0.834000       15.9994           0
     63458 WT6      1892     TIP3     H1       HT       0.417000        1.0080           0
     63459 WT6      1892     TIP3     H2       HT       0.417000        1.0080           0
     63460 WT6      1894     TIP3     OH2      OT      -0.834000       15.9994           0
     63461 WT6      1894     TIP3     H1       HT       0.417000        1.0080           0
     63462 WT6      1894     TIP3     H2       HT       0.417000        1.0080           0
     63463 WT6      1896     TIP3     OH2      OT      -0.834000       15.9994           0
     63464 WT6      1896     TIP3     H1       HT       0.417000        1.0080           0
     63465 WT6      1896     TIP3     H2       HT       0.417000        1.0080           0
     63466 WT6      1897     TIP3     OH2      OT      -0.834000       15.9994           0
     63467 WT6      1897     TIP3     H1       HT       0.417000        1.0080           0
     63468 WT6      1897     TIP3     H2       HT       0.417000        1.0080           0
     63469 WT6      1898     TIP3     OH2      OT      -0.834000       15.9994           0
     63470 WT6      1898     TIP3     H1       HT       0.417000        1.0080           0
     63471 WT6      1898     TIP3     H2       HT       0.417000        1.0080           0
     63472 WT6      1911     TIP3     OH2      OT      -0.834000       15.9994           0
     63473 WT6      1911     TIP3     H1       HT       0.417000        1.0080           0
     63474 WT6      1911     TIP3     H2       HT       0.417000        1.0080           0
     63475 WT6      1912     TIP3     OH2      OT      -0.834000       15.9994           0
     63476 WT6      1912     TIP3     H1       HT       0.417000        1.0080           0
     63477 WT6      1912     TIP3     H2       HT       0.417000        1.0080           0
     63478 WT6      1913     TIP3     OH2      OT      -0.834000       15.9994           0
     63479 WT6      1913     TIP3     H1       HT       0.417000        1.0080           0
     63480 WT6      1913     TIP3     H2       HT       0.417000        1.0080           0
     63481 WT6      1914     TIP3     OH2      OT      -0.834000       15.9994           0
     63482 WT6      1914     TIP3     H1       HT       0.417000        1.0080           0
     63483 WT6      1914     TIP3     H2       HT       0.417000        1.0080           0
     63484 WT6      1915     TIP3     OH2      OT      -0.834000       15.9994           0
     63485 WT6      1915     TIP3     H1       HT       0.417000        1.0080           0
     63486 WT6      1915     TIP3     H2       HT       0.417000        1.0080           0
     63487 WT6      1918     TIP3     OH2      OT      -0.834000       15.9994           0
     63488 WT6      1918     TIP3     H1       HT       0.417000        1.0080           0
     63489 WT6      1918     TIP3     H2       HT       0.417000        1.0080           0
     63490 WT6      1919     TIP3     OH2      OT      -0.834000       15.9994           0
     63491 WT6      1919     TIP3     H1       HT       0.417000        1.0080           0
     63492 WT6      1919     TIP3     H2       HT       0.417000        1.0080           0
     63493 WT6      1923     TIP3     OH2      OT      -0.834000       15.9994           0
     63494 WT6      1923     TIP3     H1       HT       0.417000        1.0080           0
     63495 WT6      1923     TIP3     H2       HT       0.417000        1.0080           0
     63496 WT6      1934     TIP3     OH2      OT      -0.834000       15.9994           0
     63497 WT6      1934     TIP3     H1       HT       0.417000        1.0080           0
     63498 WT6      1934     TIP3     H2       HT       0.417000        1.0080           0
     63499 WT6      1935     TIP3     OH2      OT      -0.834000       15.9994           0
     63500 WT6      1935     TIP3     H1       HT       0.417000        1.0080           0
     63501 WT6      1935     TIP3     H2       HT       0.417000        1.0080           0
     63502 WT6      1936     TIP3     OH2      OT      -0.834000       15.9994           0
     63503 WT6      1936     TIP3     H1       HT       0.417000        1.0080           0
     63504 WT6      1936     TIP3     H2       HT       0.417000        1.0080           0
     63505 WT6      1937     TIP3     OH2      OT      -0.834000       15.9994           0
     63506 WT6      1937     TIP3     H1       HT       0.417000        1.0080           0
     63507 WT6      1937     TIP3     H2       HT       0.417000        1.0080           0
     63508 WT6      1938     TIP3     OH2      OT      -0.834000       15.9994           0
     63509 WT6      1938     TIP3     H1       HT       0.417000        1.0080           0
     63510 WT6      1938     TIP3     H2       HT       0.417000        1.0080           0
     63511 WT6      1939     TIP3     OH2      OT      -0.834000       15.9994           0
     63512 WT6      1939     TIP3     H1       HT       0.417000        1.0080           0
     63513 WT6      1939     TIP3     H2       HT       0.417000        1.0080           0
     63514 WT6      1950     TIP3     OH2      OT      -0.834000       15.9994           0
     63515 WT6      1950     TIP3     H1       HT       0.417000        1.0080           0
     63516 WT6      1950     TIP3     H2       HT       0.417000        1.0080           0
     63517 WT6      1952     TIP3     OH2      OT      -0.834000       15.9994           0
     63518 WT6      1952     TIP3     H1       HT       0.417000        1.0080           0
     63519 WT6      1952     TIP3     H2       HT       0.417000        1.0080           0
     63520 WT6      1953     TIP3     OH2      OT      -0.834000       15.9994           0
     63521 WT6      1953     TIP3     H1       HT       0.417000        1.0080           0
     63522 WT6      1953     TIP3     H2       HT       0.417000        1.0080           0
     63523 WT6      1954     TIP3     OH2      OT      -0.834000       15.9994           0
     63524 WT6      1954     TIP3     H1       HT       0.417000        1.0080           0
     63525 WT6      1954     TIP3     H2       HT       0.417000        1.0080           0
     63526 WT6      1955     TIP3     OH2      OT      -0.834000       15.9994           0
     63527 WT6      1955     TIP3     H1       HT       0.417000        1.0080           0
     63528 WT6      1955     TIP3     H2       HT       0.417000        1.0080           0
     63529 WT6      1961     TIP3     OH2      OT      -0.834000       15.9994           0
     63530 WT6      1961     TIP3     H1       HT       0.417000        1.0080           0
     63531 WT6      1961     TIP3     H2       HT       0.417000        1.0080           0
     63532 WT6      1976     TIP3     OH2      OT      -0.834000       15.9994           0
     63533 WT6      1976     TIP3     H1       HT       0.417000        1.0080           0
     63534 WT6      1976     TIP3     H2       HT       0.417000        1.0080           0
     63535 WT6      1977     TIP3     OH2      OT      -0.834000       15.9994           0
     63536 WT6      1977     TIP3     H1       HT       0.417000        1.0080           0
     63537 WT6      1977     TIP3     H2       HT       0.417000        1.0080           0
     63538 WT6      1978     TIP3     OH2      OT      -0.834000       15.9994           0
     63539 WT6      1978     TIP3     H1       HT       0.417000        1.0080           0
     63540 WT6      1978     TIP3     H2       HT       0.417000        1.0080           0
     63541 WT6      1979     TIP3     OH2      OT      -0.834000       15.9994           0
     63542 WT6      1979     TIP3     H1       HT       0.417000        1.0080           0
     63543 WT6      1979     TIP3     H2       HT       0.417000        1.0080           0
     63544 WT6      1993     TIP3     OH2      OT      -0.834000       15.9994           0
     63545 WT6      1993     TIP3     H1       HT       0.417000        1.0080           0
     63546 WT6      1993     TIP3     H2       HT       0.417000        1.0080           0
     63547 WT6      1998     TIP3     OH2      OT      -0.834000       15.9994           0
     63548 WT6      1998     TIP3     H1       HT       0.417000        1.0080           0
     63549 WT6      1998     TIP3     H2       HT       0.417000        1.0080           0
     63550 WT6      1999     TIP3     OH2      OT      -0.834000       15.9994           0
     63551 WT6      1999     TIP3     H1       HT       0.417000        1.0080           0
     63552 WT6      1999     TIP3     H2       HT       0.417000        1.0080           0
     63553 WT6      2000     TIP3     OH2      OT      -0.834000       15.9994           0
     63554 WT6      2000     TIP3     H1       HT       0.417000        1.0080           0
     63555 WT6      2000     TIP3     H2       HT       0.417000        1.0080           0
     63556 WT6      2002     TIP3     OH2      OT      -0.834000       15.9994           0
     63557 WT6      2002     TIP3     H1       HT       0.417000        1.0080           0
     63558 WT6      2002     TIP3     H2       HT       0.417000        1.0080           0
     63559 WT6      2004     TIP3     OH2      OT      -0.834000       15.9994           0
     63560 WT6      2004     TIP3     H1       HT       0.417000        1.0080           0
     63561 WT6      2004     TIP3     H2       HT       0.417000        1.0080           0
     63562 WT6      2014     TIP3     OH2      OT      -0.834000       15.9994           0
     63563 WT6      2014     TIP3     H1       HT       0.417000        1.0080           0
     63564 WT6      2014     TIP3     H2       HT       0.417000        1.0080           0
     63565 WT6      2016     TIP3     OH2      OT      -0.834000       15.9994           0
     63566 WT6      2016     TIP3     H1       HT       0.417000        1.0080           0
     63567 WT6      2016     TIP3     H2       HT       0.417000        1.0080           0
     63568 WT6      2018     TIP3     OH2      OT      -0.834000       15.9994           0
     63569 WT6      2018     TIP3     H1       HT       0.417000        1.0080           0
     63570 WT6      2018     TIP3     H2       HT       0.417000        1.0080           0
     63571 WT6      2019     TIP3     OH2      OT      -0.834000       15.9994           0
     63572 WT6      2019     TIP3     H1       HT       0.417000        1.0080           0
     63573 WT6      2019     TIP3     H2       HT       0.417000        1.0080           0
     63574 WT6      2021     TIP3     OH2      OT      -0.834000       15.9994           0
     63575 WT6      2021     TIP3     H1       HT       0.417000        1.0080           0
     63576 WT6      2021     TIP3     H2       HT       0.417000        1.0080           0
     63577 WT6      2022     TIP3     OH2      OT      -0.834000       15.9994           0
     63578 WT6      2022     TIP3     H1       HT       0.417000        1.0080           0
     63579 WT6      2022     TIP3     H2       HT       0.417000        1.0080           0
     63580 WT6      2023     TIP3     OH2      OT      -0.834000       15.9994           0
     63581 WT6      2023     TIP3     H1       HT       0.417000        1.0080           0
     63582 WT6      2023     TIP3     H2       HT       0.417000        1.0080           0
     63583 WT6      2024     TIP3     OH2      OT      -0.834000       15.9994           0
     63584 WT6      2024     TIP3     H1       HT       0.417000        1.0080           0
     63585 WT6      2024     TIP3     H2       HT       0.417000        1.0080           0
     63586 WT6      2025     TIP3     OH2      OT      -0.834000       15.9994           0
     63587 WT6      2025     TIP3     H1       HT       0.417000        1.0080           0
     63588 WT6      2025     TIP3     H2       HT       0.417000        1.0080           0
     63589 WT6      2037     TIP3     OH2      OT      -0.834000       15.9994           0
     63590 WT6      2037     TIP3     H1       HT       0.417000        1.0080           0
     63591 WT6      2037     TIP3     H2       HT       0.417000        1.0080           0
     63592 WT6      2038     TIP3     OH2      OT      -0.834000       15.9994           0
     63593 WT6      2038     TIP3     H1       HT       0.417000        1.0080           0
     63594 WT6      2038     TIP3     H2       HT       0.417000        1.0080           0
     63595 WT6      2039     TIP3     OH2      OT      -0.834000       15.9994           0
     63596 WT6      2039     TIP3     H1       HT       0.417000        1.0080           0
     63597 WT6      2039     TIP3     H2       HT       0.417000        1.0080           0
     63598 WT6      2040     TIP3     OH2      OT      -0.834000       15.9994           0
     63599 WT6      2040     TIP3     H1       HT       0.417000        1.0080           0
     63600 WT6      2040     TIP3     H2       HT       0.417000        1.0080           0
     63601 WT6      2042     TIP3     OH2      OT      -0.834000       15.9994           0
     63602 WT6      2042     TIP3     H1       HT       0.417000        1.0080           0
     63603 WT6      2042     TIP3     H2       HT       0.417000        1.0080           0
     63604 WT6      2044     TIP3     OH2      OT      -0.834000       15.9994           0
     63605 WT6      2044     TIP3     H1       HT       0.417000        1.0080           0
     63606 WT6      2044     TIP3     H2       HT       0.417000        1.0080           0
     63607 WT6      2046     TIP3     OH2      OT      -0.834000       15.9994           0
     63608 WT6      2046     TIP3     H1       HT       0.417000        1.0080           0
     63609 WT6      2046     TIP3     H2       HT       0.417000        1.0080           0
     63610 WT6      2060     TIP3     OH2      OT      -0.834000       15.9994           0
     63611 WT6      2060     TIP3     H1       HT       0.417000        1.0080           0
     63612 WT6      2060     TIP3     H2       HT       0.417000        1.0080           0
     63613 WT6      2061     TIP3     OH2      OT      -0.834000       15.9994           0
     63614 WT6      2061     TIP3     H1       HT       0.417000        1.0080           0
     63615 WT6      2061     TIP3     H2       HT       0.417000        1.0080           0
     63616 WT6      2062     TIP3     OH2      OT      -0.834000       15.9994           0
     63617 WT6      2062     TIP3     H1       HT       0.417000        1.0080           0
     63618 WT6      2062     TIP3     H2       HT       0.417000        1.0080           0
     63619 WT6      2063     TIP3     OH2      OT      -0.834000       15.9994           0
     63620 WT6      2063     TIP3     H1       HT       0.417000        1.0080           0
     63621 WT6      2063     TIP3     H2       HT       0.417000        1.0080           0
     63622 WT6      2064     TIP3     OH2      OT      -0.834000       15.9994           0
     63623 WT6      2064     TIP3     H1       HT       0.417000        1.0080           0
     63624 WT6      2064     TIP3     H2       HT       0.417000        1.0080           0
     63625 WT6      2066     TIP3     OH2      OT      -0.834000       15.9994           0
     63626 WT6      2066     TIP3     H1       HT       0.417000        1.0080           0
     63627 WT6      2066     TIP3     H2       HT       0.417000        1.0080           0
     63628 WT6      2079     TIP3     OH2      OT      -0.834000       15.9994           0
     63629 WT6      2079     TIP3     H1       HT       0.417000        1.0080           0
     63630 WT6      2079     TIP3     H2       HT       0.417000        1.0080           0
     63631 WT6      2082     TIP3     OH2      OT      -0.834000       15.9994           0
     63632 WT6      2082     TIP3     H1       HT       0.417000        1.0080           0
     63633 WT6      2082     TIP3     H2       HT       0.417000        1.0080           0
     63634 WT6      2083     TIP3     OH2      OT      -0.834000       15.9994           0
     63635 WT6      2083     TIP3     H1       HT       0.417000        1.0080           0
     63636 WT6      2083     TIP3     H2       HT       0.417000        1.0080           0
     63637 WT6      2084     TIP3     OH2      OT      -0.834000       15.9994           0
     63638 WT6      2084     TIP3     H1       HT       0.417000        1.0080           0
     63639 WT6      2084     TIP3     H2       HT       0.417000        1.0080           0
     63640 WT6      2085     TIP3     OH2      OT      -0.834000       15.9994           0
     63641 WT6      2085     TIP3     H1       HT       0.417000        1.0080           0
     63642 WT6      2085     TIP3     H2       HT       0.417000        1.0080           0
     63643 WT6      2088     TIP3     OH2      OT      -0.834000       15.9994           0
     63644 WT6      2088     TIP3     H1       HT       0.417000        1.0080           0
     63645 WT6      2088     TIP3     H2       HT       0.417000        1.0080           0
     63646 WT6      2091     TIP3     OH2      OT      -0.834000       15.9994           0
     63647 WT6      2091     TIP3     H1       HT       0.417000        1.0080           0
     63648 WT6      2091     TIP3     H2       HT       0.417000        1.0080           0
     63649 WT6      2102     TIP3     OH2      OT      -0.834000       15.9994           0
     63650 WT6      2102     TIP3     H1       HT       0.417000        1.0080           0
     63651 WT6      2102     TIP3     H2       HT       0.417000        1.0080           0
     63652 WT6      2103     TIP3     OH2      OT      -0.834000       15.9994           0
     63653 WT6      2103     TIP3     H1       HT       0.417000        1.0080           0
     63654 WT6      2103     TIP3     H2       HT       0.417000        1.0080           0
     63655 WT6      2104     TIP3     OH2      OT      -0.834000       15.9994           0
     63656 WT6      2104     TIP3     H1       HT       0.417000        1.0080           0
     63657 WT6      2104     TIP3     H2       HT       0.417000        1.0080           0
     63658 WT6      2105     TIP3     OH2      OT      -0.834000       15.9994           0
     63659 WT6      2105     TIP3     H1       HT       0.417000        1.0080           0
     63660 WT6      2105     TIP3     H2       HT       0.417000        1.0080           0
     63661 WT6      2107     TIP3     OH2      OT      -0.834000       15.9994           0
     63662 WT6      2107     TIP3     H1       HT       0.417000        1.0080           0
     63663 WT6      2107     TIP3     H2       HT       0.417000        1.0080           0
     63664 WT6      2108     TIP3     OH2      OT      -0.834000       15.9994           0
     63665 WT6      2108     TIP3     H1       HT       0.417000        1.0080           0
     63666 WT6      2108     TIP3     H2       HT       0.417000        1.0080           0
     63667 WT6      2122     TIP3     OH2      OT      -0.834000       15.9994           0
     63668 WT6      2122     TIP3     H1       HT       0.417000        1.0080           0
     63669 WT6      2122     TIP3     H2       HT       0.417000        1.0080           0
     63670 WT6      2123     TIP3     OH2      OT      -0.834000       15.9994           0
     63671 WT6      2123     TIP3     H1       HT       0.417000        1.0080           0
     63672 WT6      2123     TIP3     H2       HT       0.417000        1.0080           0
     63673 WT6      2124     TIP3     OH2      OT      -0.834000       15.9994           0
     63674 WT6      2124     TIP3     H1       HT       0.417000        1.0080           0
     63675 WT6      2124     TIP3     H2       HT       0.417000        1.0080           0
     63676 WT6      2125     TIP3     OH2      OT      -0.834000       15.9994           0
     63677 WT6      2125     TIP3     H1       HT       0.417000        1.0080           0
     63678 WT6      2125     TIP3     H2       HT       0.417000        1.0080           0
     63679 WT6      2126     TIP3     OH2      OT      -0.834000       15.9994           0
     63680 WT6      2126     TIP3     H1       HT       0.417000        1.0080           0
     63681 WT6      2126     TIP3     H2       HT       0.417000        1.0080           0
     63682 WT6      2128     TIP3     OH2      OT      -0.834000       15.9994           0
     63683 WT6      2128     TIP3     H1       HT       0.417000        1.0080           0
     63684 WT6      2128     TIP3     H2       HT       0.417000        1.0080           0
     63685 WT6      2129     TIP3     OH2      OT      -0.834000       15.9994           0
     63686 WT6      2129     TIP3     H1       HT       0.417000        1.0080           0
     63687 WT6      2129     TIP3     H2       HT       0.417000        1.0080           0
     63688 WT6      2131     TIP3     OH2      OT      -0.834000       15.9994           0
     63689 WT6      2131     TIP3     H1       HT       0.417000        1.0080           0
     63690 WT6      2131     TIP3     H2       HT       0.417000        1.0080           0
     63691 WT6      2143     TIP3     OH2      OT      -0.834000       15.9994           0
     63692 WT6      2143     TIP3     H1       HT       0.417000        1.0080           0
     63693 WT6      2143     TIP3     H2       HT       0.417000        1.0080           0
     63694 WT6      2146     TIP3     OH2      OT      -0.834000       15.9994           0
     63695 WT6      2146     TIP3     H1       HT       0.417000        1.0080           0
     63696 WT6      2146     TIP3     H2       HT       0.417000        1.0080           0
     63697 WT6      2148     TIP3     OH2      OT      -0.834000       15.9994           0
     63698 WT6      2148     TIP3     H1       HT       0.417000        1.0080           0
     63699 WT6      2148     TIP3     H2       HT       0.417000        1.0080           0
     63700 WT6      2150     TIP3     OH2      OT      -0.834000       15.9994           0
     63701 WT6      2150     TIP3     H1       HT       0.417000        1.0080           0
     63702 WT6      2150     TIP3     H2       HT       0.417000        1.0080           0
     63703 WT6      2163     TIP3     OH2      OT      -0.834000       15.9994           0
     63704 WT6      2163     TIP3     H1       HT       0.417000        1.0080           0
     63705 WT6      2163     TIP3     H2       HT       0.417000        1.0080           0
     63706 WT6      2164     TIP3     OH2      OT      -0.834000       15.9994           0
     63707 WT6      2164     TIP3     H1       HT       0.417000        1.0080           0
     63708 WT6      2164     TIP3     H2       HT       0.417000        1.0080           0
     63709 WT6      2165     TIP3     OH2      OT      -0.834000       15.9994           0
     63710 WT6      2165     TIP3     H1       HT       0.417000        1.0080           0
     63711 WT6      2165     TIP3     H2       HT       0.417000        1.0080           0
     63712 WT6      2166     TIP3     OH2      OT      -0.834000       15.9994           0
     63713 WT6      2166     TIP3     H1       HT       0.417000        1.0080           0
     63714 WT6      2166     TIP3     H2       HT       0.417000        1.0080           0
     63715 WT6      2167     TIP3     OH2      OT      -0.834000       15.9994           0
     63716 WT6      2167     TIP3     H1       HT       0.417000        1.0080           0
     63717 WT6      2167     TIP3     H2       HT       0.417000        1.0080           0
     63718 WT6      2168     TIP3     OH2      OT      -0.834000       15.9994           0
     63719 WT6      2168     TIP3     H1       HT       0.417000        1.0080           0
     63720 WT6      2168     TIP3     H2       HT       0.417000        1.0080           0
     63721 WT6      2169     TIP3     OH2      OT      -0.834000       15.9994           0
     63722 WT6      2169     TIP3     H1       HT       0.417000        1.0080           0
     63723 WT6      2169     TIP3     H2       HT       0.417000        1.0080           0
     63724 WT6      2170     TIP3     OH2      OT      -0.834000       15.9994           0
     63725 WT6      2170     TIP3     H1       HT       0.417000        1.0080           0
     63726 WT6      2170     TIP3     H2       HT       0.417000        1.0080           0
     63727 WT6      2172     TIP3     OH2      OT      -0.834000       15.9994           0
     63728 WT6      2172     TIP3     H1       HT       0.417000        1.0080           0
     63729 WT6      2172     TIP3     H2       HT       0.417000        1.0080           0
     63730 WT6      2183     TIP3     OH2      OT      -0.834000       15.9994           0
     63731 WT6      2183     TIP3     H1       HT       0.417000        1.0080           0
     63732 WT6      2183     TIP3     H2       HT       0.417000        1.0080           0
     63733 WT6      2185     TIP3     OH2      OT      -0.834000       15.9994           0
     63734 WT6      2185     TIP3     H1       HT       0.417000        1.0080           0
     63735 WT6      2185     TIP3     H2       HT       0.417000        1.0080           0
     63736 WT6      2186     TIP3     OH2      OT      -0.834000       15.9994           0
     63737 WT6      2186     TIP3     H1       HT       0.417000        1.0080           0
     63738 WT6      2186     TIP3     H2       HT       0.417000        1.0080           0
     63739 WT6      2187     TIP3     OH2      OT      -0.834000       15.9994           0
     63740 WT6      2187     TIP3     H1       HT       0.417000        1.0080           0
     63741 WT6      2187     TIP3     H2       HT       0.417000        1.0080           0
     63742 WT6      2188     TIP3     OH2      OT      -0.834000       15.9994           0
     63743 WT6      2188     TIP3     H1       HT       0.417000        1.0080           0
     63744 WT6      2188     TIP3     H2       HT       0.417000        1.0080           0
     63745 WT6      2189     TIP3     OH2      OT      -0.834000       15.9994           0
     63746 WT6      2189     TIP3     H1       HT       0.417000        1.0080           0
     63747 WT6      2189     TIP3     H2       HT       0.417000        1.0080           0
     63748 WT6      2190     TIP3     OH2      OT      -0.834000       15.9994           0
     63749 WT6      2190     TIP3     H1       HT       0.417000        1.0080           0
     63750 WT6      2190     TIP3     H2       HT       0.417000        1.0080           0
     63751 WT6      2193     TIP3     OH2      OT      -0.834000       15.9994           0
     63752 WT6      2193     TIP3     H1       HT       0.417000        1.0080           0
     63753 WT6      2193     TIP3     H2       HT       0.417000        1.0080           0
     63754 WT6      2207     TIP3     OH2      OT      -0.834000       15.9994           0
     63755 WT6      2207     TIP3     H1       HT       0.417000        1.0080           0
     63756 WT6      2207     TIP3     H2       HT       0.417000        1.0080           0
     63757 WT6      2209     TIP3     OH2      OT      -0.834000       15.9994           0
     63758 WT6      2209     TIP3     H1       HT       0.417000        1.0080           0
     63759 WT6      2209     TIP3     H2       HT       0.417000        1.0080           0
     63760 WT6      2210     TIP3     OH2      OT      -0.834000       15.9994           0
     63761 WT6      2210     TIP3     H1       HT       0.417000        1.0080           0
     63762 WT6      2210     TIP3     H2       HT       0.417000        1.0080           0
     63763 WT6      2223     TIP3     OH2      OT      -0.834000       15.9994           0
     63764 WT6      2223     TIP3     H1       HT       0.417000        1.0080           0
     63765 WT6      2223     TIP3     H2       HT       0.417000        1.0080           0
     63766 WT6      2227     TIP3     OH2      OT      -0.834000       15.9994           0
     63767 WT6      2227     TIP3     H1       HT       0.417000        1.0080           0
     63768 WT6      2227     TIP3     H2       HT       0.417000        1.0080           0
     63769 WT6      2229     TIP3     OH2      OT      -0.834000       15.9994           0
     63770 WT6      2229     TIP3     H1       HT       0.417000        1.0080           0
     63771 WT6      2229     TIP3     H2       HT       0.417000        1.0080           0
     63772 WT6      2231     TIP3     OH2      OT      -0.834000       15.9994           0
     63773 WT6      2231     TIP3     H1       HT       0.417000        1.0080           0
     63774 WT6      2231     TIP3     H2       HT       0.417000        1.0080           0
     63775 WT6      2232     TIP3     OH2      OT      -0.834000       15.9994           0
     63776 WT6      2232     TIP3     H1       HT       0.417000        1.0080           0
     63777 WT6      2232     TIP3     H2       HT       0.417000        1.0080           0
     63778 WT6      2233     TIP3     OH2      OT      -0.834000       15.9994           0
     63779 WT6      2233     TIP3     H1       HT       0.417000        1.0080           0
     63780 WT6      2233     TIP3     H2       HT       0.417000        1.0080           0
     63781 WT6      2244     TIP3     OH2      OT      -0.834000       15.9994           0
     63782 WT6      2244     TIP3     H1       HT       0.417000        1.0080           0
     63783 WT6      2244     TIP3     H2       HT       0.417000        1.0080           0
     63784 WT6      2250     TIP3     OH2      OT      -0.834000       15.9994           0
     63785 WT6      2250     TIP3     H1       HT       0.417000        1.0080           0
     63786 WT6      2250     TIP3     H2       HT       0.417000        1.0080           0
     63787 WT6      2251     TIP3     OH2      OT      -0.834000       15.9994           0
     63788 WT6      2251     TIP3     H1       HT       0.417000        1.0080           0
     63789 WT6      2251     TIP3     H2       HT       0.417000        1.0080           0
     63790 WT6      2252     TIP3     OH2      OT      -0.834000       15.9994           0
     63791 WT6      2252     TIP3     H1       HT       0.417000        1.0080           0
     63792 WT6      2252     TIP3     H2       HT       0.417000        1.0080           0
     63793 WT6      2253     TIP3     OH2      OT      -0.834000       15.9994           0
     63794 WT6      2253     TIP3     H1       HT       0.417000        1.0080           0
     63795 WT6      2253     TIP3     H2       HT       0.417000        1.0080           0
     63796 WT6      2254     TIP3     OH2      OT      -0.834000       15.9994           0
     63797 WT6      2254     TIP3     H1       HT       0.417000        1.0080           0
     63798 WT6      2254     TIP3     H2       HT       0.417000        1.0080           0
     63799 WT6      2255     TIP3     OH2      OT      -0.834000       15.9994           0
     63800 WT6      2255     TIP3     H1       HT       0.417000        1.0080           0
     63801 WT6      2255     TIP3     H2       HT       0.417000        1.0080           0
     63802 WT6      2269     TIP3     OH2      OT      -0.834000       15.9994           0
     63803 WT6      2269     TIP3     H1       HT       0.417000        1.0080           0
     63804 WT6      2269     TIP3     H2       HT       0.417000        1.0080           0
     63805 WT6      2270     TIP3     OH2      OT      -0.834000       15.9994           0
     63806 WT6      2270     TIP3     H1       HT       0.417000        1.0080           0
     63807 WT6      2270     TIP3     H2       HT       0.417000        1.0080           0
     63808 WT6      2271     TIP3     OH2      OT      -0.834000       15.9994           0
     63809 WT6      2271     TIP3     H1       HT       0.417000        1.0080           0
     63810 WT6      2271     TIP3     H2       HT       0.417000        1.0080           0
     63811 WT6      2272     TIP3     OH2      OT      -0.834000       15.9994           0
     63812 WT6      2272     TIP3     H1       HT       0.417000        1.0080           0
     63813 WT6      2272     TIP3     H2       HT       0.417000        1.0080           0
     63814 WT6      2274     TIP3     OH2      OT      -0.834000       15.9994           0
     63815 WT6      2274     TIP3     H1       HT       0.417000        1.0080           0
     63816 WT6      2274     TIP3     H2       HT       0.417000        1.0080           0
     63817 WT6      2275     TIP3     OH2      OT      -0.834000       15.9994           0
     63818 WT6      2275     TIP3     H1       HT       0.417000        1.0080           0
     63819 WT6      2275     TIP3     H2       HT       0.417000        1.0080           0
     63820 WT6      2276     TIP3     OH2      OT      -0.834000       15.9994           0
     63821 WT6      2276     TIP3     H1       HT       0.417000        1.0080           0
     63822 WT6      2276     TIP3     H2       HT       0.417000        1.0080           0
     63823 WT6      2277     TIP3     OH2      OT      -0.834000       15.9994           0
     63824 WT6      2277     TIP3     H1       HT       0.417000        1.0080           0
     63825 WT6      2277     TIP3     H2       HT       0.417000        1.0080           0
     63826 WT6      2280     TIP3     OH2      OT      -0.834000       15.9994           0
     63827 WT6      2280     TIP3     H1       HT       0.417000        1.0080           0
     63828 WT6      2280     TIP3     H2       HT       0.417000        1.0080           0
     63829 WT6      2288     TIP3     OH2      OT      -0.834000       15.9994           0
     63830 WT6      2288     TIP3     H1       HT       0.417000        1.0080           0
     63831 WT6      2288     TIP3     H2       HT       0.417000        1.0080           0
     63832 WT6      2290     TIP3     OH2      OT      -0.834000       15.9994           0
     63833 WT6      2290     TIP3     H1       HT       0.417000        1.0080           0
     63834 WT6      2290     TIP3     H2       HT       0.417000        1.0080           0
     63835 WT6      2292     TIP3     OH2      OT      -0.834000       15.9994           0
     63836 WT6      2292     TIP3     H1       HT       0.417000        1.0080           0
     63837 WT6      2292     TIP3     H2       HT       0.417000        1.0080           0
     63838 WT6      2293     TIP3     OH2      OT      -0.834000       15.9994           0
     63839 WT6      2293     TIP3     H1       HT       0.417000        1.0080           0
     63840 WT6      2293     TIP3     H2       HT       0.417000        1.0080           0
     63841 WT6      2295     TIP3     OH2      OT      -0.834000       15.9994           0
     63842 WT6      2295     TIP3     H1       HT       0.417000        1.0080           0
     63843 WT6      2295     TIP3     H2       HT       0.417000        1.0080           0
     63844 WT6      2302     TIP3     OH2      OT      -0.834000       15.9994           0
     63845 WT6      2302     TIP3     H1       HT       0.417000        1.0080           0
     63846 WT6      2302     TIP3     H2       HT       0.417000        1.0080           0
     63847 WT6      2309     TIP3     OH2      OT      -0.834000       15.9994           0
     63848 WT6      2309     TIP3     H1       HT       0.417000        1.0080           0
     63849 WT6      2309     TIP3     H2       HT       0.417000        1.0080           0
     63850 WT6      2311     TIP3     OH2      OT      -0.834000       15.9994           0
     63851 WT6      2311     TIP3     H1       HT       0.417000        1.0080           0
     63852 WT6      2311     TIP3     H2       HT       0.417000        1.0080           0
     63853 WT6      2312     TIP3     OH2      OT      -0.834000       15.9994           0
     63854 WT6      2312     TIP3     H1       HT       0.417000        1.0080           0
     63855 WT6      2312     TIP3     H2       HT       0.417000        1.0080           0
     63856 WT6      2315     TIP3     OH2      OT      -0.834000       15.9994           0
     63857 WT6      2315     TIP3     H1       HT       0.417000        1.0080           0
     63858 WT6      2315     TIP3     H2       HT       0.417000        1.0080           0
     63859 WT6      2316     TIP3     OH2      OT      -0.834000       15.9994           0
     63860 WT6      2316     TIP3     H1       HT       0.417000        1.0080           0
     63861 WT6      2316     TIP3     H2       HT       0.417000        1.0080           0
     63862 WT6      2317     TIP3     OH2      OT      -0.834000       15.9994           0
     63863 WT6      2317     TIP3     H1       HT       0.417000        1.0080           0
     63864 WT6      2317     TIP3     H2       HT       0.417000        1.0080           0
     63865 WT6      2318     TIP3     OH2      OT      -0.834000       15.9994           0
     63866 WT6      2318     TIP3     H1       HT       0.417000        1.0080           0
     63867 WT6      2318     TIP3     H2       HT       0.417000        1.0080           0
     63868 WT6      2319     TIP3     OH2      OT      -0.834000       15.9994           0
     63869 WT6      2319     TIP3     H1       HT       0.417000        1.0080           0
     63870 WT6      2319     TIP3     H2       HT       0.417000        1.0080           0
     63871 WT6      2320     TIP3     OH2      OT      -0.834000       15.9994           0
     63872 WT6      2320     TIP3     H1       HT       0.417000        1.0080           0
     63873 WT6      2320     TIP3     H2       HT       0.417000        1.0080           0
     63874 WT6      2333     TIP3     OH2      OT      -0.834000       15.9994           0
     63875 WT6      2333     TIP3     H1       HT       0.417000        1.0080           0
     63876 WT6      2333     TIP3     H2       HT       0.417000        1.0080           0
     63877 WT6      2335     TIP3     OH2      OT      -0.834000       15.9994           0
     63878 WT6      2335     TIP3     H1       HT       0.417000        1.0080           0
     63879 WT6      2335     TIP3     H2       HT       0.417000        1.0080           0
     63880 WT6      2336     TIP3     OH2      OT      -0.834000       15.9994           0
     63881 WT6      2336     TIP3     H1       HT       0.417000        1.0080           0
     63882 WT6      2336     TIP3     H2       HT       0.417000        1.0080           0
     63883 WT6      2337     TIP3     OH2      OT      -0.834000       15.9994           0
     63884 WT6      2337     TIP3     H1       HT       0.417000        1.0080           0
     63885 WT6      2337     TIP3     H2       HT       0.417000        1.0080           0
     63886 WT6      2338     TIP3     OH2      OT      -0.834000       15.9994           0
     63887 WT6      2338     TIP3     H1       HT       0.417000        1.0080           0
     63888 WT6      2338     TIP3     H2       HT       0.417000        1.0080           0
     63889 WT6      2339     TIP3     OH2      OT      -0.834000       15.9994           0
     63890 WT6      2339     TIP3     H1       HT       0.417000        1.0080           0
     63891 WT6      2339     TIP3     H2       HT       0.417000        1.0080           0
     63892 WT6      2351     TIP3     OH2      OT      -0.834000       15.9994           0
     63893 WT6      2351     TIP3     H1       HT       0.417000        1.0080           0
     63894 WT6      2351     TIP3     H2       HT       0.417000        1.0080           0
     63895 WT6      2352     TIP3     OH2      OT      -0.834000       15.9994           0
     63896 WT6      2352     TIP3     H1       HT       0.417000        1.0080           0
     63897 WT6      2352     TIP3     H2       HT       0.417000        1.0080           0
     63898 WT6      2354     TIP3     OH2      OT      -0.834000       15.9994           0
     63899 WT6      2354     TIP3     H1       HT       0.417000        1.0080           0
     63900 WT6      2354     TIP3     H2       HT       0.417000        1.0080           0
     63901 WT6      2355     TIP3     OH2      OT      -0.834000       15.9994           0
     63902 WT6      2355     TIP3     H1       HT       0.417000        1.0080           0
     63903 WT6      2355     TIP3     H2       HT       0.417000        1.0080           0
     63904 WT6      2357     TIP3     OH2      OT      -0.834000       15.9994           0
     63905 WT6      2357     TIP3     H1       HT       0.417000        1.0080           0
     63906 WT6      2357     TIP3     H2       HT       0.417000        1.0080           0
     63907 WT6      2358     TIP3     OH2      OT      -0.834000       15.9994           0
     63908 WT6      2358     TIP3     H1       HT       0.417000        1.0080           0
     63909 WT6      2358     TIP3     H2       HT       0.417000        1.0080           0
     63910 WT6      2359     TIP3     OH2      OT      -0.834000       15.9994           0
     63911 WT6      2359     TIP3     H1       HT       0.417000        1.0080           0
     63912 WT6      2359     TIP3     H2       HT       0.417000        1.0080           0
     63913 WT6      2376     TIP3     OH2      OT      -0.834000       15.9994           0
     63914 WT6      2376     TIP3     H1       HT       0.417000        1.0080           0
     63915 WT6      2376     TIP3     H2       HT       0.417000        1.0080           0
     63916 WT6      2377     TIP3     OH2      OT      -0.834000       15.9994           0
     63917 WT6      2377     TIP3     H1       HT       0.417000        1.0080           0
     63918 WT6      2377     TIP3     H2       HT       0.417000        1.0080           0
     63919 WT6      2380     TIP3     OH2      OT      -0.834000       15.9994           0
     63920 WT6      2380     TIP3     H1       HT       0.417000        1.0080           0
     63921 WT6      2380     TIP3     H2       HT       0.417000        1.0080           0
     63922 WT6      2395     TIP3     OH2      OT      -0.834000       15.9994           0
     63923 WT6      2395     TIP3     H1       HT       0.417000        1.0080           0
     63924 WT6      2395     TIP3     H2       HT       0.417000        1.0080           0
     63925 WT6      2397     TIP3     OH2      OT      -0.834000       15.9994           0
     63926 WT6      2397     TIP3     H1       HT       0.417000        1.0080           0
     63927 WT6      2397     TIP3     H2       HT       0.417000        1.0080           0
     63928 WT6      2398     TIP3     OH2      OT      -0.834000       15.9994           0
     63929 WT6      2398     TIP3     H1       HT       0.417000        1.0080           0
     63930 WT6      2398     TIP3     H2       HT       0.417000        1.0080           0
     63931 WT6      2399     TIP3     OH2      OT      -0.834000       15.9994           0
     63932 WT6      2399     TIP3     H1       HT       0.417000        1.0080           0
     63933 WT6      2399     TIP3     H2       HT       0.417000        1.0080           0
     63934 WT6      2400     TIP3     OH2      OT      -0.834000       15.9994           0
     63935 WT6      2400     TIP3     H1       HT       0.417000        1.0080           0
     63936 WT6      2400     TIP3     H2       HT       0.417000        1.0080           0
     63937 WT6      2417     TIP3     OH2      OT      -0.834000       15.9994           0
     63938 WT6      2417     TIP3     H1       HT       0.417000        1.0080           0
     63939 WT6      2417     TIP3     H2       HT       0.417000        1.0080           0
     63940 WT6      2419     TIP3     OH2      OT      -0.834000       15.9994           0
     63941 WT6      2419     TIP3     H1       HT       0.417000        1.0080           0
     63942 WT6      2419     TIP3     H2       HT       0.417000        1.0080           0
     63943 WT6      2421     TIP3     OH2      OT      -0.834000       15.9994           0
     63944 WT6      2421     TIP3     H1       HT       0.417000        1.0080           0
     63945 WT6      2421     TIP3     H2       HT       0.417000        1.0080           0
     63946 WT6      2423     TIP3     OH2      OT      -0.834000       15.9994           0
     63947 WT6      2423     TIP3     H1       HT       0.417000        1.0080           0
     63948 WT6      2423     TIP3     H2       HT       0.417000        1.0080           0
     63949 WT6      2436     TIP3     OH2      OT      -0.834000       15.9994           0
     63950 WT6      2436     TIP3     H1       HT       0.417000        1.0080           0
     63951 WT6      2436     TIP3     H2       HT       0.417000        1.0080           0
     63952 WT6      2439     TIP3     OH2      OT      -0.834000       15.9994           0
     63953 WT6      2439     TIP3     H1       HT       0.417000        1.0080           0
     63954 WT6      2439     TIP3     H2       HT       0.417000        1.0080           0
     63955 WT6      2440     TIP3     OH2      OT      -0.834000       15.9994           0
     63956 WT6      2440     TIP3     H1       HT       0.417000        1.0080           0
     63957 WT6      2440     TIP3     H2       HT       0.417000        1.0080           0
     63958 WT6      2441     TIP3     OH2      OT      -0.834000       15.9994           0
     63959 WT6      2441     TIP3     H1       HT       0.417000        1.0080           0
     63960 WT6      2441     TIP3     H2       HT       0.417000        1.0080           0
     63961 WT6      2442     TIP3     OH2      OT      -0.834000       15.9994           0
     63962 WT6      2442     TIP3     H1       HT       0.417000        1.0080           0
     63963 WT6      2442     TIP3     H2       HT       0.417000        1.0080           0
     63964 WT6      2444     TIP3     OH2      OT      -0.834000       15.9994           0
     63965 WT6      2444     TIP3     H1       HT       0.417000        1.0080           0
     63966 WT6      2444     TIP3     H2       HT       0.417000        1.0080           0
     63967 WT6      2447     TIP3     OH2      OT      -0.834000       15.9994           0
     63968 WT6      2447     TIP3     H1       HT       0.417000        1.0080           0
     63969 WT6      2447     TIP3     H2       HT       0.417000        1.0080           0
     63970 WT6      2459     TIP3     OH2      OT      -0.834000       15.9994           0
     63971 WT6      2459     TIP3     H1       HT       0.417000        1.0080           0
     63972 WT6      2459     TIP3     H2       HT       0.417000        1.0080           0
     63973 WT6      2460     TIP3     OH2      OT      -0.834000       15.9994           0
     63974 WT6      2460     TIP3     H1       HT       0.417000        1.0080           0
     63975 WT6      2460     TIP3     H2       HT       0.417000        1.0080           0
     63976 WT6      2461     TIP3     OH2      OT      -0.834000       15.9994           0
     63977 WT6      2461     TIP3     H1       HT       0.417000        1.0080           0
     63978 WT6      2461     TIP3     H2       HT       0.417000        1.0080           0
     63979 WT6      2462     TIP3     OH2      OT      -0.834000       15.9994           0
     63980 WT6      2462     TIP3     H1       HT       0.417000        1.0080           0
     63981 WT6      2462     TIP3     H2       HT       0.417000        1.0080           0
     63982 WT6      2463     TIP3     OH2      OT      -0.834000       15.9994           0
     63983 WT6      2463     TIP3     H1       HT       0.417000        1.0080           0
     63984 WT6      2463     TIP3     H2       HT       0.417000        1.0080           0
     63985 WT6      2477     TIP3     OH2      OT      -0.834000       15.9994           0
     63986 WT6      2477     TIP3     H1       HT       0.417000        1.0080           0
     63987 WT6      2477     TIP3     H2       HT       0.417000        1.0080           0
     63988 WT6      2479     TIP3     OH2      OT      -0.834000       15.9994           0
     63989 WT6      2479     TIP3     H1       HT       0.417000        1.0080           0
     63990 WT6      2479     TIP3     H2       HT       0.417000        1.0080           0
     63991 WT6      2480     TIP3     OH2      OT      -0.834000       15.9994           0
     63992 WT6      2480     TIP3     H1       HT       0.417000        1.0080           0
     63993 WT6      2480     TIP3     H2       HT       0.417000        1.0080           0
     63994 WT6      2482     TIP3     OH2      OT      -0.834000       15.9994           0
     63995 WT6      2482     TIP3     H1       HT       0.417000        1.0080           0
     63996 WT6      2482     TIP3     H2       HT       0.417000        1.0080           0
     63997 WT6      2483     TIP3     OH2      OT      -0.834000       15.9994           0
     63998 WT6      2483     TIP3     H1       HT       0.417000        1.0080           0
     63999 WT6      2483     TIP3     H2       HT       0.417000        1.0080           0
     64000 WT6      2484     TIP3     OH2      OT      -0.834000       15.9994           0
     64001 WT6      2484     TIP3     H1       HT       0.417000        1.0080           0
     64002 WT6      2484     TIP3     H2       HT       0.417000        1.0080           0
     64003 WT6      2499     TIP3     OH2      OT      -0.834000       15.9994           0
     64004 WT6      2499     TIP3     H1       HT       0.417000        1.0080           0
     64005 WT6      2499     TIP3     H2       HT       0.417000        1.0080           0
     64006 WT6      2500     TIP3     OH2      OT      -0.834000       15.9994           0
     64007 WT6      2500     TIP3     H1       HT       0.417000        1.0080           0
     64008 WT6      2500     TIP3     H2       HT       0.417000        1.0080           0
     64009 WT6      2503     TIP3     OH2      OT      -0.834000       15.9994           0
     64010 WT6      2503     TIP3     H1       HT       0.417000        1.0080           0
     64011 WT6      2503     TIP3     H2       HT       0.417000        1.0080           0
     64012 WT6      2505     TIP3     OH2      OT      -0.834000       15.9994           0
     64013 WT6      2505     TIP3     H1       HT       0.417000        1.0080           0
     64014 WT6      2505     TIP3     H2       HT       0.417000        1.0080           0
     64015 WT6      2508     TIP3     OH2      OT      -0.834000       15.9994           0
     64016 WT6      2508     TIP3     H1       HT       0.417000        1.0080           0
     64017 WT6      2508     TIP3     H2       HT       0.417000        1.0080           0
     64018 WT6      2519     TIP3     OH2      OT      -0.834000       15.9994           0
     64019 WT6      2519     TIP3     H1       HT       0.417000        1.0080           0
     64020 WT6      2519     TIP3     H2       HT       0.417000        1.0080           0
     64021 WT6      2521     TIP3     OH2      OT      -0.834000       15.9994           0
     64022 WT6      2521     TIP3     H1       HT       0.417000        1.0080           0
     64023 WT6      2521     TIP3     H2       HT       0.417000        1.0080           0
     64024 WT6      2523     TIP3     OH2      OT      -0.834000       15.9994           0
     64025 WT6      2523     TIP3     H1       HT       0.417000        1.0080           0
     64026 WT6      2523     TIP3     H2       HT       0.417000        1.0080           0
     64027 WT6      2524     TIP3     OH2      OT      -0.834000       15.9994           0
     64028 WT6      2524     TIP3     H1       HT       0.417000        1.0080           0
     64029 WT6      2524     TIP3     H2       HT       0.417000        1.0080           0
     64030 WT6      2525     TIP3     OH2      OT      -0.834000       15.9994           0
     64031 WT6      2525     TIP3     H1       HT       0.417000        1.0080           0
     64032 WT6      2525     TIP3     H2       HT       0.417000        1.0080           0
     64033 WT6      2526     TIP3     OH2      OT      -0.834000       15.9994           0
     64034 WT6      2526     TIP3     H1       HT       0.417000        1.0080           0
     64035 WT6      2526     TIP3     H2       HT       0.417000        1.0080           0
     64036 WT6      2528     TIP3     OH2      OT      -0.834000       15.9994           0
     64037 WT6      2528     TIP3     H1       HT       0.417000        1.0080           0
     64038 WT6      2528     TIP3     H2       HT       0.417000        1.0080           0
     64039 WT6      2529     TIP3     OH2      OT      -0.834000       15.9994           0
     64040 WT6      2529     TIP3     H1       HT       0.417000        1.0080           0
     64041 WT6      2529     TIP3     H2       HT       0.417000        1.0080           0
     64042 WT6      2539     TIP3     OH2      OT      -0.834000       15.9994           0
     64043 WT6      2539     TIP3     H1       HT       0.417000        1.0080           0
     64044 WT6      2539     TIP3     H2       HT       0.417000        1.0080           0
     64045 WT6      2540     TIP3     OH2      OT      -0.834000       15.9994           0
     64046 WT6      2540     TIP3     H1       HT       0.417000        1.0080           0
     64047 WT6      2540     TIP3     H2       HT       0.417000        1.0080           0
     64048 WT6      2541     TIP3     OH2      OT      -0.834000       15.9994           0
     64049 WT6      2541     TIP3     H1       HT       0.417000        1.0080           0
     64050 WT6      2541     TIP3     H2       HT       0.417000        1.0080           0
     64051 WT6      2544     TIP3     OH2      OT      -0.834000       15.9994           0
     64052 WT6      2544     TIP3     H1       HT       0.417000        1.0080           0
     64053 WT6      2544     TIP3     H2       HT       0.417000        1.0080           0
     64054 WT6      2548     TIP3     OH2      OT      -0.834000       15.9994           0
     64055 WT6      2548     TIP3     H1       HT       0.417000        1.0080           0
     64056 WT6      2548     TIP3     H2       HT       0.417000        1.0080           0
     64057 WT6      2562     TIP3     OH2      OT      -0.834000       15.9994           0
     64058 WT6      2562     TIP3     H1       HT       0.417000        1.0080           0
     64059 WT6      2562     TIP3     H2       HT       0.417000        1.0080           0
     64060 WT6      2563     TIP3     OH2      OT      -0.834000       15.9994           0
     64061 WT6      2563     TIP3     H1       HT       0.417000        1.0080           0
     64062 WT6      2563     TIP3     H2       HT       0.417000        1.0080           0
     64063 WT6      2564     TIP3     OH2      OT      -0.834000       15.9994           0
     64064 WT6      2564     TIP3     H1       HT       0.417000        1.0080           0
     64065 WT6      2564     TIP3     H2       HT       0.417000        1.0080           0
     64066 WT6      2565     TIP3     OH2      OT      -0.834000       15.9994           0
     64067 WT6      2565     TIP3     H1       HT       0.417000        1.0080           0
     64068 WT6      2565     TIP3     H2       HT       0.417000        1.0080           0
     64069 WT6      2567     TIP3     OH2      OT      -0.834000       15.9994           0
     64070 WT6      2567     TIP3     H1       HT       0.417000        1.0080           0
     64071 WT6      2567     TIP3     H2       HT       0.417000        1.0080           0
     64072 WT6      2569     TIP3     OH2      OT      -0.834000       15.9994           0
     64073 WT6      2569     TIP3     H1       HT       0.417000        1.0080           0
     64074 WT6      2569     TIP3     H2       HT       0.417000        1.0080           0
     64075 WT6      2570     TIP3     OH2      OT      -0.834000       15.9994           0
     64076 WT6      2570     TIP3     H1       HT       0.417000        1.0080           0
     64077 WT6      2570     TIP3     H2       HT       0.417000        1.0080           0
     64078 WT6      2573     TIP3     OH2      OT      -0.834000       15.9994           0
     64079 WT6      2573     TIP3     H1       HT       0.417000        1.0080           0
     64080 WT6      2573     TIP3     H2       HT       0.417000        1.0080           0
     64081 WT6      2582     TIP3     OH2      OT      -0.834000       15.9994           0
     64082 WT6      2582     TIP3     H1       HT       0.417000        1.0080           0
     64083 WT6      2582     TIP3     H2       HT       0.417000        1.0080           0
     64084 WT6      2584     TIP3     OH2      OT      -0.834000       15.9994           0
     64085 WT6      2584     TIP3     H1       HT       0.417000        1.0080           0
     64086 WT6      2584     TIP3     H2       HT       0.417000        1.0080           0
     64087 WT6      2588     TIP3     OH2      OT      -0.834000       15.9994           0
     64088 WT6      2588     TIP3     H1       HT       0.417000        1.0080           0
     64089 WT6      2588     TIP3     H2       HT       0.417000        1.0080           0
     64090 WT6      2589     TIP3     OH2      OT      -0.834000       15.9994           0
     64091 WT6      2589     TIP3     H1       HT       0.417000        1.0080           0
     64092 WT6      2589     TIP3     H2       HT       0.417000        1.0080           0
     64093 WT6      2606     TIP3     OH2      OT      -0.834000       15.9994           0
     64094 WT6      2606     TIP3     H1       HT       0.417000        1.0080           0
     64095 WT6      2606     TIP3     H2       HT       0.417000        1.0080           0
     64096 WT6      2607     TIP3     OH2      OT      -0.834000       15.9994           0
     64097 WT6      2607     TIP3     H1       HT       0.417000        1.0080           0
     64098 WT6      2607     TIP3     H2       HT       0.417000        1.0080           0
     64099 WT6      2608     TIP3     OH2      OT      -0.834000       15.9994           0
     64100 WT6      2608     TIP3     H1       HT       0.417000        1.0080           0
     64101 WT6      2608     TIP3     H2       HT       0.417000        1.0080           0
     64102 WT6      2609     TIP3     OH2      OT      -0.834000       15.9994           0
     64103 WT6      2609     TIP3     H1       HT       0.417000        1.0080           0
     64104 WT6      2609     TIP3     H2       HT       0.417000        1.0080           0
     64105 WT6      2612     TIP3     OH2      OT      -0.834000       15.9994           0
     64106 WT6      2612     TIP3     H1       HT       0.417000        1.0080           0
     64107 WT6      2612     TIP3     H2       HT       0.417000        1.0080           0
     64108 WT6      2631     TIP3     OH2      OT      -0.834000       15.9994           0
     64109 WT6      2631     TIP3     H1       HT       0.417000        1.0080           0
     64110 WT6      2631     TIP3     H2       HT       0.417000        1.0080           0
     64111 WT6      2634     TIP3     OH2      OT      -0.834000       15.9994           0
     64112 WT6      2634     TIP3     H1       HT       0.417000        1.0080           0
     64113 WT6      2634     TIP3     H2       HT       0.417000        1.0080           0
     64114 WT6      2648     TIP3     OH2      OT      -0.834000       15.9994           0
     64115 WT6      2648     TIP3     H1       HT       0.417000        1.0080           0
     64116 WT6      2648     TIP3     H2       HT       0.417000        1.0080           0
     64117 WT6      2651     TIP3     OH2      OT      -0.834000       15.9994           0
     64118 WT6      2651     TIP3     H1       HT       0.417000        1.0080           0
     64119 WT6      2651     TIP3     H2       HT       0.417000        1.0080           0
     64120 WT6      2653     TIP3     OH2      OT      -0.834000       15.9994           0
     64121 WT6      2653     TIP3     H1       HT       0.417000        1.0080           0
     64122 WT6      2653     TIP3     H2       HT       0.417000        1.0080           0
     64123 WT6      2655     TIP3     OH2      OT      -0.834000       15.9994           0
     64124 WT6      2655     TIP3     H1       HT       0.417000        1.0080           0
     64125 WT6      2655     TIP3     H2       HT       0.417000        1.0080           0
     64126 WT6      2668     TIP3     OH2      OT      -0.834000       15.9994           0
     64127 WT6      2668     TIP3     H1       HT       0.417000        1.0080           0
     64128 WT6      2668     TIP3     H2       HT       0.417000        1.0080           0
     64129 WT6      2669     TIP3     OH2      OT      -0.834000       15.9994           0
     64130 WT6      2669     TIP3     H1       HT       0.417000        1.0080           0
     64131 WT6      2669     TIP3     H2       HT       0.417000        1.0080           0
     64132 WT6      2673     TIP3     OH2      OT      -0.834000       15.9994           0
     64133 WT6      2673     TIP3     H1       HT       0.417000        1.0080           0
     64134 WT6      2673     TIP3     H2       HT       0.417000        1.0080           0
     64135 WT6      2689     TIP3     OH2      OT      -0.834000       15.9994           0
     64136 WT6      2689     TIP3     H1       HT       0.417000        1.0080           0
     64137 WT6      2689     TIP3     H2       HT       0.417000        1.0080           0
     64138 WT6      2690     TIP3     OH2      OT      -0.834000       15.9994           0
     64139 WT6      2690     TIP3     H1       HT       0.417000        1.0080           0
     64140 WT6      2690     TIP3     H2       HT       0.417000        1.0080           0
     64141 WT6      2691     TIP3     OH2      OT      -0.834000       15.9994           0
     64142 WT6      2691     TIP3     H1       HT       0.417000        1.0080           0
     64143 WT6      2691     TIP3     H2       HT       0.417000        1.0080           0
     64144 WT6      2694     TIP3     OH2      OT      -0.834000       15.9994           0
     64145 WT6      2694     TIP3     H1       HT       0.417000        1.0080           0
     64146 WT6      2694     TIP3     H2       HT       0.417000        1.0080           0
     64147 WT6      2697     TIP3     OH2      OT      -0.834000       15.9994           0
     64148 WT6      2697     TIP3     H1       HT       0.417000        1.0080           0
     64149 WT6      2697     TIP3     H2       HT       0.417000        1.0080           0
     64150 WT6      2701     TIP3     OH2      OT      -0.834000       15.9994           0
     64151 WT6      2701     TIP3     H1       HT       0.417000        1.0080           0
     64152 WT6      2701     TIP3     H2       HT       0.417000        1.0080           0
     64153 WT6      2709     TIP3     OH2      OT      -0.834000       15.9994           0
     64154 WT6      2709     TIP3     H1       HT       0.417000        1.0080           0
     64155 WT6      2709     TIP3     H2       HT       0.417000        1.0080           0
     64156 WT6      2712     TIP3     OH2      OT      -0.834000       15.9994           0
     64157 WT6      2712     TIP3     H1       HT       0.417000        1.0080           0
     64158 WT6      2712     TIP3     H2       HT       0.417000        1.0080           0
     64159 WT6      2713     TIP3     OH2      OT      -0.834000       15.9994           0
     64160 WT6      2713     TIP3     H1       HT       0.417000        1.0080           0
     64161 WT6      2713     TIP3     H2       HT       0.417000        1.0080           0
     64162 WT6      2714     TIP3     OH2      OT      -0.834000       15.9994           0
     64163 WT6      2714     TIP3     H1       HT       0.417000        1.0080           0
     64164 WT6      2714     TIP3     H2       HT       0.417000        1.0080           0
     64165 WT6      2715     TIP3     OH2      OT      -0.834000       15.9994           0
     64166 WT6      2715     TIP3     H1       HT       0.417000        1.0080           0
     64167 WT6      2715     TIP3     H2       HT       0.417000        1.0080           0
     64168 WT6      2732     TIP3     OH2      OT      -0.834000       15.9994           0
     64169 WT6      2732     TIP3     H1       HT       0.417000        1.0080           0
     64170 WT6      2732     TIP3     H2       HT       0.417000        1.0080           0
     64171 WT6      2734     TIP3     OH2      OT      -0.834000       15.9994           0
     64172 WT6      2734     TIP3     H1       HT       0.417000        1.0080           0
     64173 WT6      2734     TIP3     H2       HT       0.417000        1.0080           0
     64174 WT6      2735     TIP3     OH2      OT      -0.834000       15.9994           0
     64175 WT6      2735     TIP3     H1       HT       0.417000        1.0080           0
     64176 WT6      2735     TIP3     H2       HT       0.417000        1.0080           0
     64177 WT6      2753     TIP3     OH2      OT      -0.834000       15.9994           0
     64178 WT6      2753     TIP3     H1       HT       0.417000        1.0080           0
     64179 WT6      2753     TIP3     H2       HT       0.417000        1.0080           0
     64180 WT6      2755     TIP3     OH2      OT      -0.834000       15.9994           0
     64181 WT6      2755     TIP3     H1       HT       0.417000        1.0080           0
     64182 WT6      2755     TIP3     H2       HT       0.417000        1.0080           0
     64183 WT6      2757     TIP3     OH2      OT      -0.834000       15.9994           0
     64184 WT6      2757     TIP3     H1       HT       0.417000        1.0080           0
     64185 WT6      2757     TIP3     H2       HT       0.417000        1.0080           0
     64186 WT6      2758     TIP3     OH2      OT      -0.834000       15.9994           0
     64187 WT6      2758     TIP3     H1       HT       0.417000        1.0080           0
     64188 WT6      2758     TIP3     H2       HT       0.417000        1.0080           0
     64189 WT6      2771     TIP3     OH2      OT      -0.834000       15.9994           0
     64190 WT6      2771     TIP3     H1       HT       0.417000        1.0080           0
     64191 WT6      2771     TIP3     H2       HT       0.417000        1.0080           0
     64192 WT6      2776     TIP3     OH2      OT      -0.834000       15.9994           0
     64193 WT6      2776     TIP3     H1       HT       0.417000        1.0080           0
     64194 WT6      2776     TIP3     H2       HT       0.417000        1.0080           0
     64195 WT6      2778     TIP3     OH2      OT      -0.834000       15.9994           0
     64196 WT6      2778     TIP3     H1       HT       0.417000        1.0080           0
     64197 WT6      2778     TIP3     H2       HT       0.417000        1.0080           0
     64198 WT6      2781     TIP3     OH2      OT      -0.834000       15.9994           0
     64199 WT6      2781     TIP3     H1       HT       0.417000        1.0080           0
     64200 WT6      2781     TIP3     H2       HT       0.417000        1.0080           0
     64201 WT6      2793     TIP3     OH2      OT      -0.834000       15.9994           0
     64202 WT6      2793     TIP3     H1       HT       0.417000        1.0080           0
     64203 WT6      2793     TIP3     H2       HT       0.417000        1.0080           0
     64204 WT6      2794     TIP3     OH2      OT      -0.834000       15.9994           0
     64205 WT6      2794     TIP3     H1       HT       0.417000        1.0080           0
     64206 WT6      2794     TIP3     H2       HT       0.417000        1.0080           0
     64207 WT6      2795     TIP3     OH2      OT      -0.834000       15.9994           0
     64208 WT6      2795     TIP3     H1       HT       0.417000        1.0080           0
     64209 WT6      2795     TIP3     H2       HT       0.417000        1.0080           0
     64210 WT6      2796     TIP3     OH2      OT      -0.834000       15.9994           0
     64211 WT6      2796     TIP3     H1       HT       0.417000        1.0080           0
     64212 WT6      2796     TIP3     H2       HT       0.417000        1.0080           0
     64213 WT6      2797     TIP3     OH2      OT      -0.834000       15.9994           0
     64214 WT6      2797     TIP3     H1       HT       0.417000        1.0080           0
     64215 WT6      2797     TIP3     H2       HT       0.417000        1.0080           0
     64216 WT6      2798     TIP3     OH2      OT      -0.834000       15.9994           0
     64217 WT6      2798     TIP3     H1       HT       0.417000        1.0080           0
     64218 WT6      2798     TIP3     H2       HT       0.417000        1.0080           0
     64219 WT6      2802     TIP3     OH2      OT      -0.834000       15.9994           0
     64220 WT6      2802     TIP3     H1       HT       0.417000        1.0080           0
     64221 WT6      2802     TIP3     H2       HT       0.417000        1.0080           0
     64222 WT6      2815     TIP3     OH2      OT      -0.834000       15.9994           0
     64223 WT6      2815     TIP3     H1       HT       0.417000        1.0080           0
     64224 WT6      2815     TIP3     H2       HT       0.417000        1.0080           0
     64225 WT6      2817     TIP3     OH2      OT      -0.834000       15.9994           0
     64226 WT6      2817     TIP3     H1       HT       0.417000        1.0080           0
     64227 WT6      2817     TIP3     H2       HT       0.417000        1.0080           0
     64228 WT6      2832     TIP3     OH2      OT      -0.834000       15.9994           0
     64229 WT6      2832     TIP3     H1       HT       0.417000        1.0080           0
     64230 WT6      2832     TIP3     H2       HT       0.417000        1.0080           0
     64231 WT6      2838     TIP3     OH2      OT      -0.834000       15.9994           0
     64232 WT6      2838     TIP3     H1       HT       0.417000        1.0080           0
     64233 WT6      2838     TIP3     H2       HT       0.417000        1.0080           0
     64234 WT6      2840     TIP3     OH2      OT      -0.834000       15.9994           0
     64235 WT6      2840     TIP3     H1       HT       0.417000        1.0080           0
     64236 WT6      2840     TIP3     H2       HT       0.417000        1.0080           0
     64237 WT6      2841     TIP3     OH2      OT      -0.834000       15.9994           0
     64238 WT6      2841     TIP3     H1       HT       0.417000        1.0080           0
     64239 WT6      2841     TIP3     H2       HT       0.417000        1.0080           0
     64240 WT6      2842     TIP3     OH2      OT      -0.834000       15.9994           0
     64241 WT6      2842     TIP3     H1       HT       0.417000        1.0080           0
     64242 WT6      2842     TIP3     H2       HT       0.417000        1.0080           0
     64243 WT6      2857     TIP3     OH2      OT      -0.834000       15.9994           0
     64244 WT6      2857     TIP3     H1       HT       0.417000        1.0080           0
     64245 WT6      2857     TIP3     H2       HT       0.417000        1.0080           0
     64246 WT6      2859     TIP3     OH2      OT      -0.834000       15.9994           0
     64247 WT6      2859     TIP3     H1       HT       0.417000        1.0080           0
     64248 WT6      2859     TIP3     H2       HT       0.417000        1.0080           0
     64249 WT6      2861     TIP3     OH2      OT      -0.834000       15.9994           0
     64250 WT6      2861     TIP3     H1       HT       0.417000        1.0080           0
     64251 WT6      2861     TIP3     H2       HT       0.417000        1.0080           0
     64252 WT6      2862     TIP3     OH2      OT      -0.834000       15.9994           0
     64253 WT6      2862     TIP3     H1       HT       0.417000        1.0080           0
     64254 WT6      2862     TIP3     H2       HT       0.417000        1.0080           0
     64255 WT6      2863     TIP3     OH2      OT      -0.834000       15.9994           0
     64256 WT6      2863     TIP3     H1       HT       0.417000        1.0080           0
     64257 WT6      2863     TIP3     H2       HT       0.417000        1.0080           0
     64258 WT6      2864     TIP3     OH2      OT      -0.834000       15.9994           0
     64259 WT6      2864     TIP3     H1       HT       0.417000        1.0080           0
     64260 WT6      2864     TIP3     H2       HT       0.417000        1.0080           0
     64261 WT6      2878     TIP3     OH2      OT      -0.834000       15.9994           0
     64262 WT6      2878     TIP3     H1       HT       0.417000        1.0080           0
     64263 WT6      2878     TIP3     H2       HT       0.417000        1.0080           0
     64264 WT6      2880     TIP3     OH2      OT      -0.834000       15.9994           0
     64265 WT6      2880     TIP3     H1       HT       0.417000        1.0080           0
     64266 WT6      2880     TIP3     H2       HT       0.417000        1.0080           0
     64267 WT6      2883     TIP3     OH2      OT      -0.834000       15.9994           0
     64268 WT6      2883     TIP3     H1       HT       0.417000        1.0080           0
     64269 WT6      2883     TIP3     H2       HT       0.417000        1.0080           0
     64270 WT6      2884     TIP3     OH2      OT      -0.834000       15.9994           0
     64271 WT6      2884     TIP3     H1       HT       0.417000        1.0080           0
     64272 WT6      2884     TIP3     H2       HT       0.417000        1.0080           0
     64273 WT6      2899     TIP3     OH2      OT      -0.834000       15.9994           0
     64274 WT6      2899     TIP3     H1       HT       0.417000        1.0080           0
     64275 WT6      2899     TIP3     H2       HT       0.417000        1.0080           0
     64276 WT6      2901     TIP3     OH2      OT      -0.834000       15.9994           0
     64277 WT6      2901     TIP3     H1       HT       0.417000        1.0080           0
     64278 WT6      2901     TIP3     H2       HT       0.417000        1.0080           0
     64279 WT6      2903     TIP3     OH2      OT      -0.834000       15.9994           0
     64280 WT6      2903     TIP3     H1       HT       0.417000        1.0080           0
     64281 WT6      2903     TIP3     H2       HT       0.417000        1.0080           0
     64282 WT6      2904     TIP3     OH2      OT      -0.834000       15.9994           0
     64283 WT6      2904     TIP3     H1       HT       0.417000        1.0080           0
     64284 WT6      2904     TIP3     H2       HT       0.417000        1.0080           0
     64285 WT6      2905     TIP3     OH2      OT      -0.834000       15.9994           0
     64286 WT6      2905     TIP3     H1       HT       0.417000        1.0080           0
     64287 WT6      2905     TIP3     H2       HT       0.417000        1.0080           0
     64288 WT6      2908     TIP3     OH2      OT      -0.834000       15.9994           0
     64289 WT6      2908     TIP3     H1       HT       0.417000        1.0080           0
     64290 WT6      2908     TIP3     H2       HT       0.417000        1.0080           0
     64291 WT6      2918     TIP3     OH2      OT      -0.834000       15.9994           0
     64292 WT6      2918     TIP3     H1       HT       0.417000        1.0080           0
     64293 WT6      2918     TIP3     H2       HT       0.417000        1.0080           0
     64294 WT6      2919     TIP3     OH2      OT      -0.834000       15.9994           0
     64295 WT6      2919     TIP3     H1       HT       0.417000        1.0080           0
     64296 WT6      2919     TIP3     H2       HT       0.417000        1.0080           0
     64297 WT6      2920     TIP3     OH2      OT      -0.834000       15.9994           0
     64298 WT6      2920     TIP3     H1       HT       0.417000        1.0080           0
     64299 WT6      2920     TIP3     H2       HT       0.417000        1.0080           0
     64300 WT6      2922     TIP3     OH2      OT      -0.834000       15.9994           0
     64301 WT6      2922     TIP3     H1       HT       0.417000        1.0080           0
     64302 WT6      2922     TIP3     H2       HT       0.417000        1.0080           0
     64303 WT6      2925     TIP3     OH2      OT      -0.834000       15.9994           0
     64304 WT6      2925     TIP3     H1       HT       0.417000        1.0080           0
     64305 WT6      2925     TIP3     H2       HT       0.417000        1.0080           0
     64306 WT6      2927     TIP3     OH2      OT      -0.834000       15.9994           0
     64307 WT6      2927     TIP3     H1       HT       0.417000        1.0080           0
     64308 WT6      2927     TIP3     H2       HT       0.417000        1.0080           0
     64309 WT6      2942     TIP3     OH2      OT      -0.834000       15.9994           0
     64310 WT6      2942     TIP3     H1       HT       0.417000        1.0080           0
     64311 WT6      2942     TIP3     H2       HT       0.417000        1.0080           0
     64312 WT6      2943     TIP3     OH2      OT      -0.834000       15.9994           0
     64313 WT6      2943     TIP3     H1       HT       0.417000        1.0080           0
     64314 WT6      2943     TIP3     H2       HT       0.417000        1.0080           0
     64315 WT6      2945     TIP3     OH2      OT      -0.834000       15.9994           0
     64316 WT6      2945     TIP3     H1       HT       0.417000        1.0080           0
     64317 WT6      2945     TIP3     H2       HT       0.417000        1.0080           0
     64318 WT6      2960     TIP3     OH2      OT      -0.834000       15.9994           0
     64319 WT6      2960     TIP3     H1       HT       0.417000        1.0080           0
     64320 WT6      2960     TIP3     H2       HT       0.417000        1.0080           0
     64321 WT6      2961     TIP3     OH2      OT      -0.834000       15.9994           0
     64322 WT6      2961     TIP3     H1       HT       0.417000        1.0080           0
     64323 WT6      2961     TIP3     H2       HT       0.417000        1.0080           0
     64324 WT6      2963     TIP3     OH2      OT      -0.834000       15.9994           0
     64325 WT6      2963     TIP3     H1       HT       0.417000        1.0080           0
     64326 WT6      2963     TIP3     H2       HT       0.417000        1.0080           0
     64327 WT6      2964     TIP3     OH2      OT      -0.834000       15.9994           0
     64328 WT6      2964     TIP3     H1       HT       0.417000        1.0080           0
     64329 WT6      2964     TIP3     H2       HT       0.417000        1.0080           0
     64330 WT6      2967     TIP3     OH2      OT      -0.834000       15.9994           0
     64331 WT6      2967     TIP3     H1       HT       0.417000        1.0080           0
     64332 WT6      2967     TIP3     H2       HT       0.417000        1.0080           0
     64333 WT6      2972     TIP3     OH2      OT      -0.834000       15.9994           0
     64334 WT6      2972     TIP3     H1       HT       0.417000        1.0080           0
     64335 WT6      2972     TIP3     H2       HT       0.417000        1.0080           0
     64336 WT6      2979     TIP3     OH2      OT      -0.834000       15.9994           0
     64337 WT6      2979     TIP3     H1       HT       0.417000        1.0080           0
     64338 WT6      2979     TIP3     H2       HT       0.417000        1.0080           0
     64339 WT6      2986     TIP3     OH2      OT      -0.834000       15.9994           0
     64340 WT6      2986     TIP3     H1       HT       0.417000        1.0080           0
     64341 WT6      2986     TIP3     H2       HT       0.417000        1.0080           0
     64342 WT6      2988     TIP3     OH2      OT      -0.834000       15.9994           0
     64343 WT6      2988     TIP3     H1       HT       0.417000        1.0080           0
     64344 WT6      2988     TIP3     H2       HT       0.417000        1.0080           0
     64345 WT6      2992     TIP3     OH2      OT      -0.834000       15.9994           0
     64346 WT6      2992     TIP3     H1       HT       0.417000        1.0080           0
     64347 WT6      2992     TIP3     H2       HT       0.417000        1.0080           0
     64348 WT6      3007     TIP3     OH2      OT      -0.834000       15.9994           0
     64349 WT6      3007     TIP3     H1       HT       0.417000        1.0080           0
     64350 WT6      3007     TIP3     H2       HT       0.417000        1.0080           0
     64351 WT6      3009     TIP3     OH2      OT      -0.834000       15.9994           0
     64352 WT6      3009     TIP3     H1       HT       0.417000        1.0080           0
     64353 WT6      3009     TIP3     H2       HT       0.417000        1.0080           0
     64354 WT6      3010     TIP3     OH2      OT      -0.834000       15.9994           0
     64355 WT6      3010     TIP3     H1       HT       0.417000        1.0080           0
     64356 WT6      3010     TIP3     H2       HT       0.417000        1.0080           0
     64357 WT6      3011     TIP3     OH2      OT      -0.834000       15.9994           0
     64358 WT6      3011     TIP3     H1       HT       0.417000        1.0080           0
     64359 WT6      3011     TIP3     H2       HT       0.417000        1.0080           0
     64360 WT6      3012     TIP3     OH2      OT      -0.834000       15.9994           0
     64361 WT6      3012     TIP3     H1       HT       0.417000        1.0080           0
     64362 WT6      3012     TIP3     H2       HT       0.417000        1.0080           0
     64363 WT6      3013     TIP3     OH2      OT      -0.834000       15.9994           0
     64364 WT6      3013     TIP3     H1       HT       0.417000        1.0080           0
     64365 WT6      3013     TIP3     H2       HT       0.417000        1.0080           0
     64366 WT6      3018     TIP3     OH2      OT      -0.834000       15.9994           0
     64367 WT6      3018     TIP3     H1       HT       0.417000        1.0080           0
     64368 WT6      3018     TIP3     H2       HT       0.417000        1.0080           0
     64369 WT6      3027     TIP3     OH2      OT      -0.834000       15.9994           0
     64370 WT6      3027     TIP3     H1       HT       0.417000        1.0080           0
     64371 WT6      3027     TIP3     H2       HT       0.417000        1.0080           0
     64372 WT6      3028     TIP3     OH2      OT      -0.834000       15.9994           0
     64373 WT6      3028     TIP3     H1       HT       0.417000        1.0080           0
     64374 WT6      3028     TIP3     H2       HT       0.417000        1.0080           0
     64375 WT6      3029     TIP3     OH2      OT      -0.834000       15.9994           0
     64376 WT6      3029     TIP3     H1       HT       0.417000        1.0080           0
     64377 WT6      3029     TIP3     H2       HT       0.417000        1.0080           0
     64378 WT6      3034     TIP3     OH2      OT      -0.834000       15.9994           0
     64379 WT6      3034     TIP3     H1       HT       0.417000        1.0080           0
     64380 WT6      3034     TIP3     H2       HT       0.417000        1.0080           0
     64381 WT6      3035     TIP3     OH2      OT      -0.834000       15.9994           0
     64382 WT6      3035     TIP3     H1       HT       0.417000        1.0080           0
     64383 WT6      3035     TIP3     H2       HT       0.417000        1.0080           0
     64384 WT6      3048     TIP3     OH2      OT      -0.834000       15.9994           0
     64385 WT6      3048     TIP3     H1       HT       0.417000        1.0080           0
     64386 WT6      3048     TIP3     H2       HT       0.417000        1.0080           0
     64387 WT6      3049     TIP3     OH2      OT      -0.834000       15.9994           0
     64388 WT6      3049     TIP3     H1       HT       0.417000        1.0080           0
     64389 WT6      3049     TIP3     H2       HT       0.417000        1.0080           0
     64390 WT6      3052     TIP3     OH2      OT      -0.834000       15.9994           0
     64391 WT6      3052     TIP3     H1       HT       0.417000        1.0080           0
     64392 WT6      3052     TIP3     H2       HT       0.417000        1.0080           0
     64393 WT6      3069     TIP3     OH2      OT      -0.834000       15.9994           0
     64394 WT6      3069     TIP3     H1       HT       0.417000        1.0080           0
     64395 WT6      3069     TIP3     H2       HT       0.417000        1.0080           0
     64396 WT6      3070     TIP3     OH2      OT      -0.834000       15.9994           0
     64397 WT6      3070     TIP3     H1       HT       0.417000        1.0080           0
     64398 WT6      3070     TIP3     H2       HT       0.417000        1.0080           0
     64399 WT6      3072     TIP3     OH2      OT      -0.834000       15.9994           0
     64400 WT6      3072     TIP3     H1       HT       0.417000        1.0080           0
     64401 WT6      3072     TIP3     H2       HT       0.417000        1.0080           0
     64402 WT6      3073     TIP3     OH2      OT      -0.834000       15.9994           0
     64403 WT6      3073     TIP3     H1       HT       0.417000        1.0080           0
     64404 WT6      3073     TIP3     H2       HT       0.417000        1.0080           0
     64405 WT6      3086     TIP3     OH2      OT      -0.834000       15.9994           0
     64406 WT6      3086     TIP3     H1       HT       0.417000        1.0080           0
     64407 WT6      3086     TIP3     H2       HT       0.417000        1.0080           0
     64408 WT6      3087     TIP3     OH2      OT      -0.834000       15.9994           0
     64409 WT6      3087     TIP3     H1       HT       0.417000        1.0080           0
     64410 WT6      3087     TIP3     H2       HT       0.417000        1.0080           0
     64411 WT6      3088     TIP3     OH2      OT      -0.834000       15.9994           0
     64412 WT6      3088     TIP3     H1       HT       0.417000        1.0080           0
     64413 WT6      3088     TIP3     H2       HT       0.417000        1.0080           0
     64414 WT6      3091     TIP3     OH2      OT      -0.834000       15.9994           0
     64415 WT6      3091     TIP3     H1       HT       0.417000        1.0080           0
     64416 WT6      3091     TIP3     H2       HT       0.417000        1.0080           0
     64417 WT6      3096     TIP3     OH2      OT      -0.834000       15.9994           0
     64418 WT6      3096     TIP3     H1       HT       0.417000        1.0080           0
     64419 WT6      3096     TIP3     H2       HT       0.417000        1.0080           0
     64420 WT6      3108     TIP3     OH2      OT      -0.834000       15.9994           0
     64421 WT6      3108     TIP3     H1       HT       0.417000        1.0080           0
     64422 WT6      3108     TIP3     H2       HT       0.417000        1.0080           0
     64423 WT6      3109     TIP3     OH2      OT      -0.834000       15.9994           0
     64424 WT6      3109     TIP3     H1       HT       0.417000        1.0080           0
     64425 WT6      3109     TIP3     H2       HT       0.417000        1.0080           0
     64426 WT6      3113     TIP3     OH2      OT      -0.834000       15.9994           0
     64427 WT6      3113     TIP3     H1       HT       0.417000        1.0080           0
     64428 WT6      3113     TIP3     H2       HT       0.417000        1.0080           0
     64429 WT6      3115     TIP3     OH2      OT      -0.834000       15.9994           0
     64430 WT6      3115     TIP3     H1       HT       0.417000        1.0080           0
     64431 WT6      3115     TIP3     H2       HT       0.417000        1.0080           0
     64432 WT6      3128     TIP3     OH2      OT      -0.834000       15.9994           0
     64433 WT6      3128     TIP3     H1       HT       0.417000        1.0080           0
     64434 WT6      3128     TIP3     H2       HT       0.417000        1.0080           0
     64435 WT6      3131     TIP3     OH2      OT      -0.834000       15.9994           0
     64436 WT6      3131     TIP3     H1       HT       0.417000        1.0080           0
     64437 WT6      3131     TIP3     H2       HT       0.417000        1.0080           0
     64438 WT6      3134     TIP3     OH2      OT      -0.834000       15.9994           0
     64439 WT6      3134     TIP3     H1       HT       0.417000        1.0080           0
     64440 WT6      3134     TIP3     H2       HT       0.417000        1.0080           0
     64441 WT6      3140     TIP3     OH2      OT      -0.834000       15.9994           0
     64442 WT6      3140     TIP3     H1       HT       0.417000        1.0080           0
     64443 WT6      3140     TIP3     H2       HT       0.417000        1.0080           0
     64444 WT6      3150     TIP3     OH2      OT      -0.834000       15.9994           0
     64445 WT6      3150     TIP3     H1       HT       0.417000        1.0080           0
     64446 WT6      3150     TIP3     H2       HT       0.417000        1.0080           0
     64447 WT6      3152     TIP3     OH2      OT      -0.834000       15.9994           0
     64448 WT6      3152     TIP3     H1       HT       0.417000        1.0080           0
     64449 WT6      3152     TIP3     H2       HT       0.417000        1.0080           0
     64450 WT6      3153     TIP3     OH2      OT      -0.834000       15.9994           0
     64451 WT6      3153     TIP3     H1       HT       0.417000        1.0080           0
     64452 WT6      3153     TIP3     H2       HT       0.417000        1.0080           0
     64453 WT6      3157     TIP3     OH2      OT      -0.834000       15.9994           0
     64454 WT6      3157     TIP3     H1       HT       0.417000        1.0080           0
     64455 WT6      3157     TIP3     H2       HT       0.417000        1.0080           0
     64456 WT6      3173     TIP3     OH2      OT      -0.834000       15.9994           0
     64457 WT6      3173     TIP3     H1       HT       0.417000        1.0080           0
     64458 WT6      3173     TIP3     H2       HT       0.417000        1.0080           0
     64459 WT6      3177     TIP3     OH2      OT      -0.834000       15.9994           0
     64460 WT6      3177     TIP3     H1       HT       0.417000        1.0080           0
     64461 WT6      3177     TIP3     H2       HT       0.417000        1.0080           0
     64462 WT6      3179     TIP3     OH2      OT      -0.834000       15.9994           0
     64463 WT6      3179     TIP3     H1       HT       0.417000        1.0080           0
     64464 WT6      3179     TIP3     H2       HT       0.417000        1.0080           0
     64465 WT6      3192     TIP3     OH2      OT      -0.834000       15.9994           0
     64466 WT6      3192     TIP3     H1       HT       0.417000        1.0080           0
     64467 WT6      3192     TIP3     H2       HT       0.417000        1.0080           0
     64468 WT6      3195     TIP3     OH2      OT      -0.834000       15.9994           0
     64469 WT6      3195     TIP3     H1       HT       0.417000        1.0080           0
     64470 WT6      3195     TIP3     H2       HT       0.417000        1.0080           0
     64471 WT6      3196     TIP3     OH2      OT      -0.834000       15.9994           0
     64472 WT6      3196     TIP3     H1       HT       0.417000        1.0080           0
     64473 WT6      3196     TIP3     H2       HT       0.417000        1.0080           0
     64474 WT6      3197     TIP3     OH2      OT      -0.834000       15.9994           0
     64475 WT6      3197     TIP3     H1       HT       0.417000        1.0080           0
     64476 WT6      3197     TIP3     H2       HT       0.417000        1.0080           0
     64477 WT6      3198     TIP3     OH2      OT      -0.834000       15.9994           0
     64478 WT6      3198     TIP3     H1       HT       0.417000        1.0080           0
     64479 WT6      3198     TIP3     H2       HT       0.417000        1.0080           0
     64480 WT6      3215     TIP3     OH2      OT      -0.834000       15.9994           0
     64481 WT6      3215     TIP3     H1       HT       0.417000        1.0080           0
     64482 WT6      3215     TIP3     H2       HT       0.417000        1.0080           0
     64483 WT6      3218     TIP3     OH2      OT      -0.834000       15.9994           0
     64484 WT6      3218     TIP3     H1       HT       0.417000        1.0080           0
     64485 WT6      3218     TIP3     H2       HT       0.417000        1.0080           0
     64486 WT6      3219     TIP3     OH2      OT      -0.834000       15.9994           0
     64487 WT6      3219     TIP3     H1       HT       0.417000        1.0080           0
     64488 WT6      3219     TIP3     H2       HT       0.417000        1.0080           0
     64489 WT6      3220     TIP3     OH2      OT      -0.834000       15.9994           0
     64490 WT6      3220     TIP3     H1       HT       0.417000        1.0080           0
     64491 WT6      3220     TIP3     H2       HT       0.417000        1.0080           0
     64492 WT6      3223     TIP3     OH2      OT      -0.834000       15.9994           0
     64493 WT6      3223     TIP3     H1       HT       0.417000        1.0080           0
     64494 WT6      3223     TIP3     H2       HT       0.417000        1.0080           0
     64495 WT6      3234     TIP3     OH2      OT      -0.834000       15.9994           0
     64496 WT6      3234     TIP3     H1       HT       0.417000        1.0080           0
     64497 WT6      3234     TIP3     H2       HT       0.417000        1.0080           0
     64498 WT6      3236     TIP3     OH2      OT      -0.834000       15.9994           0
     64499 WT6      3236     TIP3     H1       HT       0.417000        1.0080           0
     64500 WT6      3236     TIP3     H2       HT       0.417000        1.0080           0
     64501 WT6      3237     TIP3     OH2      OT      -0.834000       15.9994           0
     64502 WT6      3237     TIP3     H1       HT       0.417000        1.0080           0
     64503 WT6      3237     TIP3     H2       HT       0.417000        1.0080           0
     64504 WT6      3240     TIP3     OH2      OT      -0.834000       15.9994           0
     64505 WT6      3240     TIP3     H1       HT       0.417000        1.0080           0
     64506 WT6      3240     TIP3     H2       HT       0.417000        1.0080           0
     64507 WT6      3241     TIP3     OH2      OT      -0.834000       15.9994           0
     64508 WT6      3241     TIP3     H1       HT       0.417000        1.0080           0
     64509 WT6      3241     TIP3     H2       HT       0.417000        1.0080           0
     64510 WT6      3242     TIP3     OH2      OT      -0.834000       15.9994           0
     64511 WT6      3242     TIP3     H1       HT       0.417000        1.0080           0
     64512 WT6      3242     TIP3     H2       HT       0.417000        1.0080           0
     64513 WT6      3244     TIP3     OH2      OT      -0.834000       15.9994           0
     64514 WT6      3244     TIP3     H1       HT       0.417000        1.0080           0
     64515 WT6      3244     TIP3     H2       HT       0.417000        1.0080           0
     64516 WT6      3262     TIP3     OH2      OT      -0.834000       15.9994           0
     64517 WT6      3262     TIP3     H1       HT       0.417000        1.0080           0
     64518 WT6      3262     TIP3     H2       HT       0.417000        1.0080           0
     64519 WT6      3275     TIP3     OH2      OT      -0.834000       15.9994           0
     64520 WT6      3275     TIP3     H1       HT       0.417000        1.0080           0
     64521 WT6      3275     TIP3     H2       HT       0.417000        1.0080           0
     64522 WT6      3276     TIP3     OH2      OT      -0.834000       15.9994           0
     64523 WT6      3276     TIP3     H1       HT       0.417000        1.0080           0
     64524 WT6      3276     TIP3     H2       HT       0.417000        1.0080           0
     64525 WT6      3277     TIP3     OH2      OT      -0.834000       15.9994           0
     64526 WT6      3277     TIP3     H1       HT       0.417000        1.0080           0
     64527 WT6      3277     TIP3     H2       HT       0.417000        1.0080           0
     64528 WT6      3278     TIP3     OH2      OT      -0.834000       15.9994           0
     64529 WT6      3278     TIP3     H1       HT       0.417000        1.0080           0
     64530 WT6      3278     TIP3     H2       HT       0.417000        1.0080           0
     64531 WT6      3283     TIP3     OH2      OT      -0.834000       15.9994           0
     64532 WT6      3283     TIP3     H1       HT       0.417000        1.0080           0
     64533 WT6      3283     TIP3     H2       HT       0.417000        1.0080           0
     64534 WT6      3289     TIP3     OH2      OT      -0.834000       15.9994           0
     64535 WT6      3289     TIP3     H1       HT       0.417000        1.0080           0
     64536 WT6      3289     TIP3     H2       HT       0.417000        1.0080           0
     64537 WT6      3303     TIP3     OH2      OT      -0.834000       15.9994           0
     64538 WT6      3303     TIP3     H1       HT       0.417000        1.0080           0
     64539 WT6      3303     TIP3     H2       HT       0.417000        1.0080           0
     64540 WT6      3304     TIP3     OH2      OT      -0.834000       15.9994           0
     64541 WT6      3304     TIP3     H1       HT       0.417000        1.0080           0
     64542 WT6      3304     TIP3     H2       HT       0.417000        1.0080           0
     64543 WT6      3319     TIP3     OH2      OT      -0.834000       15.9994           0
     64544 WT6      3319     TIP3     H1       HT       0.417000        1.0080           0
     64545 WT6      3319     TIP3     H2       HT       0.417000        1.0080           0
     64546 WT6      3320     TIP3     OH2      OT      -0.834000       15.9994           0
     64547 WT6      3320     TIP3     H1       HT       0.417000        1.0080           0
     64548 WT6      3320     TIP3     H2       HT       0.417000        1.0080           0
     64549 WT6      3321     TIP3     OH2      OT      -0.834000       15.9994           0
     64550 WT6      3321     TIP3     H1       HT       0.417000        1.0080           0
     64551 WT6      3321     TIP3     H2       HT       0.417000        1.0080           0
     64552 WT6      3322     TIP3     OH2      OT      -0.834000       15.9994           0
     64553 WT6      3322     TIP3     H1       HT       0.417000        1.0080           0
     64554 WT6      3322     TIP3     H2       HT       0.417000        1.0080           0
     64555 WT6      3326     TIP3     OH2      OT      -0.834000       15.9994           0
     64556 WT6      3326     TIP3     H1       HT       0.417000        1.0080           0
     64557 WT6      3326     TIP3     H2       HT       0.417000        1.0080           0
     64558 WT6      3337     TIP3     OH2      OT      -0.834000       15.9994           0
     64559 WT6      3337     TIP3     H1       HT       0.417000        1.0080           0
     64560 WT6      3337     TIP3     H2       HT       0.417000        1.0080           0
     64561 WT6      3341     TIP3     OH2      OT      -0.834000       15.9994           0
     64562 WT6      3341     TIP3     H1       HT       0.417000        1.0080           0
     64563 WT6      3341     TIP3     H2       HT       0.417000        1.0080           0
     64564 WT6      3342     TIP3     OH2      OT      -0.834000       15.9994           0
     64565 WT6      3342     TIP3     H1       HT       0.417000        1.0080           0
     64566 WT6      3342     TIP3     H2       HT       0.417000        1.0080           0
     64567 WT6      3344     TIP3     OH2      OT      -0.834000       15.9994           0
     64568 WT6      3344     TIP3     H1       HT       0.417000        1.0080           0
     64569 WT6      3344     TIP3     H2       HT       0.417000        1.0080           0
     64570 WT6      3347     TIP3     OH2      OT      -0.834000       15.9994           0
     64571 WT6      3347     TIP3     H1       HT       0.417000        1.0080           0
     64572 WT6      3347     TIP3     H2       HT       0.417000        1.0080           0
     64573 WT6      3349     TIP3     OH2      OT      -0.834000       15.9994           0
     64574 WT6      3349     TIP3     H1       HT       0.417000        1.0080           0
     64575 WT6      3349     TIP3     H2       HT       0.417000        1.0080           0
     64576 WT6      3360     TIP3     OH2      OT      -0.834000       15.9994           0
     64577 WT6      3360     TIP3     H1       HT       0.417000        1.0080           0
     64578 WT6      3360     TIP3     H2       HT       0.417000        1.0080           0
     64579 WT6      3364     TIP3     OH2      OT      -0.834000       15.9994           0
     64580 WT6      3364     TIP3     H1       HT       0.417000        1.0080           0
     64581 WT6      3364     TIP3     H2       HT       0.417000        1.0080           0
     64582 WT6      3365     TIP3     OH2      OT      -0.834000       15.9994           0
     64583 WT6      3365     TIP3     H1       HT       0.417000        1.0080           0
     64584 WT6      3365     TIP3     H2       HT       0.417000        1.0080           0
     64585 WT6      3367     TIP3     OH2      OT      -0.834000       15.9994           0
     64586 WT6      3367     TIP3     H1       HT       0.417000        1.0080           0
     64587 WT6      3367     TIP3     H2       HT       0.417000        1.0080           0
     64588 WT6      3381     TIP3     OH2      OT      -0.834000       15.9994           0
     64589 WT6      3381     TIP3     H1       HT       0.417000        1.0080           0
     64590 WT6      3381     TIP3     H2       HT       0.417000        1.0080           0
     64591 WT6      3382     TIP3     OH2      OT      -0.834000       15.9994           0
     64592 WT6      3382     TIP3     H1       HT       0.417000        1.0080           0
     64593 WT6      3382     TIP3     H2       HT       0.417000        1.0080           0
     64594 WT6      3383     TIP3     OH2      OT      -0.834000       15.9994           0
     64595 WT6      3383     TIP3     H1       HT       0.417000        1.0080           0
     64596 WT6      3383     TIP3     H2       HT       0.417000        1.0080           0
     64597 WT6      3384     TIP3     OH2      OT      -0.834000       15.9994           0
     64598 WT6      3384     TIP3     H1       HT       0.417000        1.0080           0
     64599 WT6      3384     TIP3     H2       HT       0.417000        1.0080           0
     64600 WT6      3386     TIP3     OH2      OT      -0.834000       15.9994           0
     64601 WT6      3386     TIP3     H1       HT       0.417000        1.0080           0
     64602 WT6      3386     TIP3     H2       HT       0.417000        1.0080           0
     64603 WT6      3387     TIP3     OH2      OT      -0.834000       15.9994           0
     64604 WT6      3387     TIP3     H1       HT       0.417000        1.0080           0
     64605 WT6      3387     TIP3     H2       HT       0.417000        1.0080           0
     64606 WT6      3388     TIP3     OH2      OT      -0.834000       15.9994           0
     64607 WT6      3388     TIP3     H1       HT       0.417000        1.0080           0
     64608 WT6      3388     TIP3     H2       HT       0.417000        1.0080           0
     64609 WT6      3389     TIP3     OH2      OT      -0.834000       15.9994           0
     64610 WT6      3389     TIP3     H1       HT       0.417000        1.0080           0
     64611 WT6      3389     TIP3     H2       HT       0.417000        1.0080           0
     64612 WT6      3405     TIP3     OH2      OT      -0.834000       15.9994           0
     64613 WT6      3405     TIP3     H1       HT       0.417000        1.0080           0
     64614 WT6      3405     TIP3     H2       HT       0.417000        1.0080           0
     64615 WT6      3406     TIP3     OH2      OT      -0.834000       15.9994           0
     64616 WT6      3406     TIP3     H1       HT       0.417000        1.0080           0
     64617 WT6      3406     TIP3     H2       HT       0.417000        1.0080           0
     64618 WT6      3411     TIP3     OH2      OT      -0.834000       15.9994           0
     64619 WT6      3411     TIP3     H1       HT       0.417000        1.0080           0
     64620 WT6      3411     TIP3     H2       HT       0.417000        1.0080           0
     64621 WT6      3422     TIP3     OH2      OT      -0.834000       15.9994           0
     64622 WT6      3422     TIP3     H1       HT       0.417000        1.0080           0
     64623 WT6      3422     TIP3     H2       HT       0.417000        1.0080           0
     64624 WT6      3424     TIP3     OH2      OT      -0.834000       15.9994           0
     64625 WT6      3424     TIP3     H1       HT       0.417000        1.0080           0
     64626 WT6      3424     TIP3     H2       HT       0.417000        1.0080           0
     64627 WT6      3426     TIP3     OH2      OT      -0.834000       15.9994           0
     64628 WT6      3426     TIP3     H1       HT       0.417000        1.0080           0
     64629 WT6      3426     TIP3     H2       HT       0.417000        1.0080           0
     64630 WT6      3427     TIP3     OH2      OT      -0.834000       15.9994           0
     64631 WT6      3427     TIP3     H1       HT       0.417000        1.0080           0
     64632 WT6      3427     TIP3     H2       HT       0.417000        1.0080           0
     64633 WT6      3442     TIP3     OH2      OT      -0.834000       15.9994           0
     64634 WT6      3442     TIP3     H1       HT       0.417000        1.0080           0
     64635 WT6      3442     TIP3     H2       HT       0.417000        1.0080           0
     64636 WT6      3444     TIP3     OH2      OT      -0.834000       15.9994           0
     64637 WT6      3444     TIP3     H1       HT       0.417000        1.0080           0
     64638 WT6      3444     TIP3     H2       HT       0.417000        1.0080           0
     64639 WT6      3447     TIP3     OH2      OT      -0.834000       15.9994           0
     64640 WT6      3447     TIP3     H1       HT       0.417000        1.0080           0
     64641 WT6      3447     TIP3     H2       HT       0.417000        1.0080           0
     64642 WT6      3449     TIP3     OH2      OT      -0.834000       15.9994           0
     64643 WT6      3449     TIP3     H1       HT       0.417000        1.0080           0
     64644 WT6      3449     TIP3     H2       HT       0.417000        1.0080           0
     64645 WT6      3450     TIP3     OH2      OT      -0.834000       15.9994           0
     64646 WT6      3450     TIP3     H1       HT       0.417000        1.0080           0
     64647 WT6      3450     TIP3     H2       HT       0.417000        1.0080           0
     64648 WT6      3452     TIP3     OH2      OT      -0.834000       15.9994           0
     64649 WT6      3452     TIP3     H1       HT       0.417000        1.0080           0
     64650 WT6      3452     TIP3     H2       HT       0.417000        1.0080           0
     64651 WT6      3467     TIP3     OH2      OT      -0.834000       15.9994           0
     64652 WT6      3467     TIP3     H1       HT       0.417000        1.0080           0
     64653 WT6      3467     TIP3     H2       HT       0.417000        1.0080           0
     64654 WT6      3469     TIP3     OH2      OT      -0.834000       15.9994           0
     64655 WT6      3469     TIP3     H1       HT       0.417000        1.0080           0
     64656 WT6      3469     TIP3     H2       HT       0.417000        1.0080           0
     64657 WT6      3473     TIP3     OH2      OT      -0.834000       15.9994           0
     64658 WT6      3473     TIP3     H1       HT       0.417000        1.0080           0
     64659 WT6      3473     TIP3     H2       HT       0.417000        1.0080           0
     64660 WT6      3486     TIP3     OH2      OT      -0.834000       15.9994           0
     64661 WT6      3486     TIP3     H1       HT       0.417000        1.0080           0
     64662 WT6      3486     TIP3     H2       HT       0.417000        1.0080           0
     64663 WT6      3490     TIP3     OH2      OT      -0.834000       15.9994           0
     64664 WT6      3490     TIP3     H1       HT       0.417000        1.0080           0
     64665 WT6      3490     TIP3     H2       HT       0.417000        1.0080           0
     64666 WT6      3491     TIP3     OH2      OT      -0.834000       15.9994           0
     64667 WT6      3491     TIP3     H1       HT       0.417000        1.0080           0
     64668 WT6      3491     TIP3     H2       HT       0.417000        1.0080           0
     64669 WT6      3494     TIP3     OH2      OT      -0.834000       15.9994           0
     64670 WT6      3494     TIP3     H1       HT       0.417000        1.0080           0
     64671 WT6      3494     TIP3     H2       HT       0.417000        1.0080           0
     64672 WT6      3495     TIP3     OH2      OT      -0.834000       15.9994           0
     64673 WT6      3495     TIP3     H1       HT       0.417000        1.0080           0
     64674 WT6      3495     TIP3     H2       HT       0.417000        1.0080           0
     64675 WT6      3508     TIP3     OH2      OT      -0.834000       15.9994           0
     64676 WT6      3508     TIP3     H1       HT       0.417000        1.0080           0
     64677 WT6      3508     TIP3     H2       HT       0.417000        1.0080           0
     64678 WT6      3516     TIP3     OH2      OT      -0.834000       15.9994           0
     64679 WT6      3516     TIP3     H1       HT       0.417000        1.0080           0
     64680 WT6      3516     TIP3     H2       HT       0.417000        1.0080           0
     64681 WT6      3526     TIP3     OH2      OT      -0.834000       15.9994           0
     64682 WT6      3526     TIP3     H1       HT       0.417000        1.0080           0
     64683 WT6      3526     TIP3     H2       HT       0.417000        1.0080           0
     64684 WT6      3527     TIP3     OH2      OT      -0.834000       15.9994           0
     64685 WT6      3527     TIP3     H1       HT       0.417000        1.0080           0
     64686 WT6      3527     TIP3     H2       HT       0.417000        1.0080           0
     64687 WT6      3531     TIP3     OH2      OT      -0.834000       15.9994           0
     64688 WT6      3531     TIP3     H1       HT       0.417000        1.0080           0
     64689 WT6      3531     TIP3     H2       HT       0.417000        1.0080           0
     64690 WT6      3534     TIP3     OH2      OT      -0.834000       15.9994           0
     64691 WT6      3534     TIP3     H1       HT       0.417000        1.0080           0
     64692 WT6      3534     TIP3     H2       HT       0.417000        1.0080           0
     64693 WT6      3535     TIP3     OH2      OT      -0.834000       15.9994           0
     64694 WT6      3535     TIP3     H1       HT       0.417000        1.0080           0
     64695 WT6      3535     TIP3     H2       HT       0.417000        1.0080           0
     64696 WT6      3545     TIP3     OH2      OT      -0.834000       15.9994           0
     64697 WT6      3545     TIP3     H1       HT       0.417000        1.0080           0
     64698 WT6      3545     TIP3     H2       HT       0.417000        1.0080           0
     64699 WT6      3548     TIP3     OH2      OT      -0.834000       15.9994           0
     64700 WT6      3548     TIP3     H1       HT       0.417000        1.0080           0
     64701 WT6      3548     TIP3     H2       HT       0.417000        1.0080           0
     64702 WT6      3549     TIP3     OH2      OT      -0.834000       15.9994           0
     64703 WT6      3549     TIP3     H1       HT       0.417000        1.0080           0
     64704 WT6      3549     TIP3     H2       HT       0.417000        1.0080           0
     64705 WT6      3550     TIP3     OH2      OT      -0.834000       15.9994           0
     64706 WT6      3550     TIP3     H1       HT       0.417000        1.0080           0
     64707 WT6      3550     TIP3     H2       HT       0.417000        1.0080           0
     64708 WT6      3551     TIP3     OH2      OT      -0.834000       15.9994           0
     64709 WT6      3551     TIP3     H1       HT       0.417000        1.0080           0
     64710 WT6      3551     TIP3     H2       HT       0.417000        1.0080           0
     64711 WT6      3554     TIP3     OH2      OT      -0.834000       15.9994           0
     64712 WT6      3554     TIP3     H1       HT       0.417000        1.0080           0
     64713 WT6      3554     TIP3     H2       HT       0.417000        1.0080           0
     64714 WT6      3559     TIP3     OH2      OT      -0.834000       15.9994           0
     64715 WT6      3559     TIP3     H1       HT       0.417000        1.0080           0
     64716 WT6      3559     TIP3     H2       HT       0.417000        1.0080           0
     64717 WT6      3570     TIP3     OH2      OT      -0.834000       15.9994           0
     64718 WT6      3570     TIP3     H1       HT       0.417000        1.0080           0
     64719 WT6      3570     TIP3     H2       HT       0.417000        1.0080           0
     64720 WT6      3572     TIP3     OH2      OT      -0.834000       15.9994           0
     64721 WT6      3572     TIP3     H1       HT       0.417000        1.0080           0
     64722 WT6      3572     TIP3     H2       HT       0.417000        1.0080           0
     64723 WT6      3574     TIP3     OH2      OT      -0.834000       15.9994           0
     64724 WT6      3574     TIP3     H1       HT       0.417000        1.0080           0
     64725 WT6      3574     TIP3     H2       HT       0.417000        1.0080           0
     64726 WT6      3575     TIP3     OH2      OT      -0.834000       15.9994           0
     64727 WT6      3575     TIP3     H1       HT       0.417000        1.0080           0
     64728 WT6      3575     TIP3     H2       HT       0.417000        1.0080           0
     64729 WT6      3591     TIP3     OH2      OT      -0.834000       15.9994           0
     64730 WT6      3591     TIP3     H1       HT       0.417000        1.0080           0
     64731 WT6      3591     TIP3     H2       HT       0.417000        1.0080           0
     64732 WT6      3592     TIP3     OH2      OT      -0.834000       15.9994           0
     64733 WT6      3592     TIP3     H1       HT       0.417000        1.0080           0
     64734 WT6      3592     TIP3     H2       HT       0.417000        1.0080           0
     64735 WT6      3596     TIP3     OH2      OT      -0.834000       15.9994           0
     64736 WT6      3596     TIP3     H1       HT       0.417000        1.0080           0
     64737 WT6      3596     TIP3     H2       HT       0.417000        1.0080           0
     64738 WT6      3597     TIP3     OH2      OT      -0.834000       15.9994           0
     64739 WT6      3597     TIP3     H1       HT       0.417000        1.0080           0
     64740 WT6      3597     TIP3     H2       HT       0.417000        1.0080           0
     64741 WT6      3614     TIP3     OH2      OT      -0.834000       15.9994           0
     64742 WT6      3614     TIP3     H1       HT       0.417000        1.0080           0
     64743 WT6      3614     TIP3     H2       HT       0.417000        1.0080           0
     64744 WT6      3619     TIP3     OH2      OT      -0.834000       15.9994           0
     64745 WT6      3619     TIP3     H1       HT       0.417000        1.0080           0
     64746 WT6      3619     TIP3     H2       HT       0.417000        1.0080           0
     64747 WT6      3641     TIP3     OH2      OT      -0.834000       15.9994           0
     64748 WT6      3641     TIP3     H1       HT       0.417000        1.0080           0
     64749 WT6      3641     TIP3     H2       HT       0.417000        1.0080           0
     64750 WT6      3650     TIP3     OH2      OT      -0.834000       15.9994           0
     64751 WT6      3650     TIP3     H1       HT       0.417000        1.0080           0
     64752 WT6      3650     TIP3     H2       HT       0.417000        1.0080           0
     64753 WT6      3651     TIP3     OH2      OT      -0.834000       15.9994           0
     64754 WT6      3651     TIP3     H1       HT       0.417000        1.0080           0
     64755 WT6      3651     TIP3     H2       HT       0.417000        1.0080           0
     64756 WT6      3653     TIP3     OH2      OT      -0.834000       15.9994           0
     64757 WT6      3653     TIP3     H1       HT       0.417000        1.0080           0
     64758 WT6      3653     TIP3     H2       HT       0.417000        1.0080           0
     64759 WT6      3659     TIP3     OH2      OT      -0.834000       15.9994           0
     64760 WT6      3659     TIP3     H1       HT       0.417000        1.0080           0
     64761 WT6      3659     TIP3     H2       HT       0.417000        1.0080           0
     64762 WT6      3660     TIP3     OH2      OT      -0.834000       15.9994           0
     64763 WT6      3660     TIP3     H1       HT       0.417000        1.0080           0
     64764 WT6      3660     TIP3     H2       HT       0.417000        1.0080           0
     64765 WT6      3661     TIP3     OH2      OT      -0.834000       15.9994           0
     64766 WT6      3661     TIP3     H1       HT       0.417000        1.0080           0
     64767 WT6      3661     TIP3     H2       HT       0.417000        1.0080           0
     64768 WT6      3662     TIP3     OH2      OT      -0.834000       15.9994           0
     64769 WT6      3662     TIP3     H1       HT       0.417000        1.0080           0
     64770 WT6      3662     TIP3     H2       HT       0.417000        1.0080           0
     64771 WT6      3677     TIP3     OH2      OT      -0.834000       15.9994           0
     64772 WT6      3677     TIP3     H1       HT       0.417000        1.0080           0
     64773 WT6      3677     TIP3     H2       HT       0.417000        1.0080           0
     64774 WT6      3697     TIP3     OH2      OT      -0.834000       15.9994           0
     64775 WT6      3697     TIP3     H1       HT       0.417000        1.0080           0
     64776 WT6      3697     TIP3     H2       HT       0.417000        1.0080           0
     64777 WT6      3698     TIP3     OH2      OT      -0.834000       15.9994           0
     64778 WT6      3698     TIP3     H1       HT       0.417000        1.0080           0
     64779 WT6      3698     TIP3     H2       HT       0.417000        1.0080           0
     64780 WT6      3702     TIP3     OH2      OT      -0.834000       15.9994           0
     64781 WT6      3702     TIP3     H1       HT       0.417000        1.0080           0
     64782 WT6      3702     TIP3     H2       HT       0.417000        1.0080           0
     64783 WT6      3703     TIP3     OH2      OT      -0.834000       15.9994           0
     64784 WT6      3703     TIP3     H1       HT       0.417000        1.0080           0
     64785 WT6      3703     TIP3     H2       HT       0.417000        1.0080           0
     64786 WT6      3708     TIP3     OH2      OT      -0.834000       15.9994           0
     64787 WT6      3708     TIP3     H1       HT       0.417000        1.0080           0
     64788 WT6      3708     TIP3     H2       HT       0.417000        1.0080           0
     64789 WT6      3718     TIP3     OH2      OT      -0.834000       15.9994           0
     64790 WT6      3718     TIP3     H1       HT       0.417000        1.0080           0
     64791 WT6      3718     TIP3     H2       HT       0.417000        1.0080           0
     64792 WT6      3720     TIP3     OH2      OT      -0.834000       15.9994           0
     64793 WT6      3720     TIP3     H1       HT       0.417000        1.0080           0
     64794 WT6      3720     TIP3     H2       HT       0.417000        1.0080           0
     64795 WT6      3723     TIP3     OH2      OT      -0.834000       15.9994           0
     64796 WT6      3723     TIP3     H1       HT       0.417000        1.0080           0
     64797 WT6      3723     TIP3     H2       HT       0.417000        1.0080           0
     64798 WT6      3728     TIP3     OH2      OT      -0.834000       15.9994           0
     64799 WT6      3728     TIP3     H1       HT       0.417000        1.0080           0
     64800 WT6      3728     TIP3     H2       HT       0.417000        1.0080           0
     64801 WT6      3737     TIP3     OH2      OT      -0.834000       15.9994           0
     64802 WT6      3737     TIP3     H1       HT       0.417000        1.0080           0
     64803 WT6      3737     TIP3     H2       HT       0.417000        1.0080           0
     64804 WT6      3740     TIP3     OH2      OT      -0.834000       15.9994           0
     64805 WT6      3740     TIP3     H1       HT       0.417000        1.0080           0
     64806 WT6      3740     TIP3     H2       HT       0.417000        1.0080           0
     64807 WT6      3761     TIP3     OH2      OT      -0.834000       15.9994           0
     64808 WT6      3761     TIP3     H1       HT       0.417000        1.0080           0
     64809 WT6      3761     TIP3     H2       HT       0.417000        1.0080           0
     64810 WT6      3764     TIP3     OH2      OT      -0.834000       15.9994           0
     64811 WT6      3764     TIP3     H1       HT       0.417000        1.0080           0
     64812 WT6      3764     TIP3     H2       HT       0.417000        1.0080           0
     64813 WT6      3776     TIP3     OH2      OT      -0.834000       15.9994           0
     64814 WT6      3776     TIP3     H1       HT       0.417000        1.0080           0
     64815 WT6      3776     TIP3     H2       HT       0.417000        1.0080           0
     64816 WT6      3785     TIP3     OH2      OT      -0.834000       15.9994           0
     64817 WT6      3785     TIP3     H1       HT       0.417000        1.0080           0
     64818 WT6      3785     TIP3     H2       HT       0.417000        1.0080           0
     64819 WT6      3790     TIP3     OH2      OT      -0.834000       15.9994           0
     64820 WT6      3790     TIP3     H1       HT       0.417000        1.0080           0
     64821 WT6      3790     TIP3     H2       HT       0.417000        1.0080           0
     64822 WT6      3800     TIP3     OH2      OT      -0.834000       15.9994           0
     64823 WT6      3800     TIP3     H1       HT       0.417000        1.0080           0
     64824 WT6      3800     TIP3     H2       HT       0.417000        1.0080           0
     64825 WT6      3845     TIP3     OH2      OT      -0.834000       15.9994           0
     64826 WT6      3845     TIP3     H1       HT       0.417000        1.0080           0
     64827 WT6      3845     TIP3     H2       HT       0.417000        1.0080           0
     64828 WT6      3847     TIP3     OH2      OT      -0.834000       15.9994           0
     64829 WT6      3847     TIP3     H1       HT       0.417000        1.0080           0
     64830 WT6      3847     TIP3     H2       HT       0.417000        1.0080           0
     64831 WT6      3848     TIP3     OH2      OT      -0.834000       15.9994           0
     64832 WT6      3848     TIP3     H1       HT       0.417000        1.0080           0
     64833 WT6      3848     TIP3     H2       HT       0.417000        1.0080           0
     64834 WT6      3849     TIP3     OH2      OT      -0.834000       15.9994           0
     64835 WT6      3849     TIP3     H1       HT       0.417000        1.0080           0
     64836 WT6      3849     TIP3     H2       HT       0.417000        1.0080           0
     64837 WT6      3852     TIP3     OH2      OT      -0.834000       15.9994           0
     64838 WT6      3852     TIP3     H1       HT       0.417000        1.0080           0
     64839 WT6      3852     TIP3     H2       HT       0.417000        1.0080           0
     64840 WT6      3863     TIP3     OH2      OT      -0.834000       15.9994           0
     64841 WT6      3863     TIP3     H1       HT       0.417000        1.0080           0
     64842 WT6      3863     TIP3     H2       HT       0.417000        1.0080           0
     64843 WT6      3868     TIP3     OH2      OT      -0.834000       15.9994           0
     64844 WT6      3868     TIP3     H1       HT       0.417000        1.0080           0
     64845 WT6      3868     TIP3     H2       HT       0.417000        1.0080           0
     64846 WT6      3869     TIP3     OH2      OT      -0.834000       15.9994           0
     64847 WT6      3869     TIP3     H1       HT       0.417000        1.0080           0
     64848 WT6      3869     TIP3     H2       HT       0.417000        1.0080           0
     64849 WT6      3882     TIP3     OH2      OT      -0.834000       15.9994           0
     64850 WT6      3882     TIP3     H1       HT       0.417000        1.0080           0
     64851 WT6      3882     TIP3     H2       HT       0.417000        1.0080           0
     64852 WT6      3895     TIP3     OH2      OT      -0.834000       15.9994           0
     64853 WT6      3895     TIP3     H1       HT       0.417000        1.0080           0
     64854 WT6      3895     TIP3     H2       HT       0.417000        1.0080           0
     64855 WT6      3907     TIP3     OH2      OT      -0.834000       15.9994           0
     64856 WT6      3907     TIP3     H1       HT       0.417000        1.0080           0
     64857 WT6      3907     TIP3     H2       HT       0.417000        1.0080           0
     64858 WT6      3913     TIP3     OH2      OT      -0.834000       15.9994           0
     64859 WT6      3913     TIP3     H1       HT       0.417000        1.0080           0
     64860 WT6      3913     TIP3     H2       HT       0.417000        1.0080           0
     64861 WT6      3925     TIP3     OH2      OT      -0.834000       15.9994           0
     64862 WT6      3925     TIP3     H1       HT       0.417000        1.0080           0
     64863 WT6      3925     TIP3     H2       HT       0.417000        1.0080           0
     64864 WT6      3928     TIP3     OH2      OT      -0.834000       15.9994           0
     64865 WT6      3928     TIP3     H1       HT       0.417000        1.0080           0
     64866 WT6      3928     TIP3     H2       HT       0.417000        1.0080           0
     64867 WT6      3930     TIP3     OH2      OT      -0.834000       15.9994           0
     64868 WT6      3930     TIP3     H1       HT       0.417000        1.0080           0
     64869 WT6      3930     TIP3     H2       HT       0.417000        1.0080           0
     64870 WT6      3933     TIP3     OH2      OT      -0.834000       15.9994           0
     64871 WT6      3933     TIP3     H1       HT       0.417000        1.0080           0
     64872 WT6      3933     TIP3     H2       HT       0.417000        1.0080           0
     64873 WT6      3934     TIP3     OH2      OT      -0.834000       15.9994           0
     64874 WT6      3934     TIP3     H1       HT       0.417000        1.0080           0
     64875 WT6      3934     TIP3     H2       HT       0.417000        1.0080           0
     64876 WT6      3951     TIP3     OH2      OT      -0.834000       15.9994           0
     64877 WT6      3951     TIP3     H1       HT       0.417000        1.0080           0
     64878 WT6      3951     TIP3     H2       HT       0.417000        1.0080           0
     64879 WT6      3955     TIP3     OH2      OT      -0.834000       15.9994           0
     64880 WT6      3955     TIP3     H1       HT       0.417000        1.0080           0
     64881 WT6      3955     TIP3     H2       HT       0.417000        1.0080           0
     64882 WT6      3956     TIP3     OH2      OT      -0.834000       15.9994           0
     64883 WT6      3956     TIP3     H1       HT       0.417000        1.0080           0
     64884 WT6      3956     TIP3     H2       HT       0.417000        1.0080           0
     64885 WT6      3972     TIP3     OH2      OT      -0.834000       15.9994           0
     64886 WT6      3972     TIP3     H1       HT       0.417000        1.0080           0
     64887 WT6      3972     TIP3     H2       HT       0.417000        1.0080           0
     64888 WT6      3976     TIP3     OH2      OT      -0.834000       15.9994           0
     64889 WT6      3976     TIP3     H1       HT       0.417000        1.0080           0
     64890 WT6      3976     TIP3     H2       HT       0.417000        1.0080           0
     64891 WT6      3977     TIP3     OH2      OT      -0.834000       15.9994           0
     64892 WT6      3977     TIP3     H1       HT       0.417000        1.0080           0
     64893 WT6      3977     TIP3     H2       HT       0.417000        1.0080           0
     64894 WT6      3991     TIP3     OH2      OT      -0.834000       15.9994           0
     64895 WT6      3991     TIP3     H1       HT       0.417000        1.0080           0
     64896 WT6      3991     TIP3     H2       HT       0.417000        1.0080           0
     64897 WT6      3994     TIP3     OH2      OT      -0.834000       15.9994           0
     64898 WT6      3994     TIP3     H1       HT       0.417000        1.0080           0
     64899 WT6      3994     TIP3     H2       HT       0.417000        1.0080           0
     64900 WT6      3995     TIP3     OH2      OT      -0.834000       15.9994           0
     64901 WT6      3995     TIP3     H1       HT       0.417000        1.0080           0
     64902 WT6      3995     TIP3     H2       HT       0.417000        1.0080           0
     64903 WT6      3996     TIP3     OH2      OT      -0.834000       15.9994           0
     64904 WT6      3996     TIP3     H1       HT       0.417000        1.0080           0
     64905 WT6      3996     TIP3     H2       HT       0.417000        1.0080           0
     64906 WT6      4009     TIP3     OH2      OT      -0.834000       15.9994           0
     64907 WT6      4009     TIP3     H1       HT       0.417000        1.0080           0
     64908 WT6      4009     TIP3     H2       HT       0.417000        1.0080           0
     64909 WT6      4011     TIP3     OH2      OT      -0.834000       15.9994           0
     64910 WT6      4011     TIP3     H1       HT       0.417000        1.0080           0
     64911 WT6      4011     TIP3     H2       HT       0.417000        1.0080           0
     64912 WT6      4012     TIP3     OH2      OT      -0.834000       15.9994           0
     64913 WT6      4012     TIP3     H1       HT       0.417000        1.0080           0
     64914 WT6      4012     TIP3     H2       HT       0.417000        1.0080           0
     64915 WT6      4017     TIP3     OH2      OT      -0.834000       15.9994           0
     64916 WT6      4017     TIP3     H1       HT       0.417000        1.0080           0
     64917 WT6      4017     TIP3     H2       HT       0.417000        1.0080           0
     64918 WT6      4033     TIP3     OH2      OT      -0.834000       15.9994           0
     64919 WT6      4033     TIP3     H1       HT       0.417000        1.0080           0
     64920 WT6      4033     TIP3     H2       HT       0.417000        1.0080           0
     64921 WT6      4036     TIP3     OH2      OT      -0.834000       15.9994           0
     64922 WT6      4036     TIP3     H1       HT       0.417000        1.0080           0
     64923 WT6      4036     TIP3     H2       HT       0.417000        1.0080           0
     64924 WT6      4037     TIP3     OH2      OT      -0.834000       15.9994           0
     64925 WT6      4037     TIP3     H1       HT       0.417000        1.0080           0
     64926 WT6      4037     TIP3     H2       HT       0.417000        1.0080           0
     64927 WT6      4039     TIP3     OH2      OT      -0.834000       15.9994           0
     64928 WT6      4039     TIP3     H1       HT       0.417000        1.0080           0
     64929 WT6      4039     TIP3     H2       HT       0.417000        1.0080           0
     64930 WT6      4059     TIP3     OH2      OT      -0.834000       15.9994           0
     64931 WT6      4059     TIP3     H1       HT       0.417000        1.0080           0
     64932 WT6      4059     TIP3     H2       HT       0.417000        1.0080           0
     64933 WT6      4074     TIP3     OH2      OT      -0.834000       15.9994           0
     64934 WT6      4074     TIP3     H1       HT       0.417000        1.0080           0
     64935 WT6      4074     TIP3     H2       HT       0.417000        1.0080           0
     64936 WT6      4077     TIP3     OH2      OT      -0.834000       15.9994           0
     64937 WT6      4077     TIP3     H1       HT       0.417000        1.0080           0
     64938 WT6      4077     TIP3     H2       HT       0.417000        1.0080           0
     64939 WT6      4081     TIP3     OH2      OT      -0.834000       15.9994           0
     64940 WT6      4081     TIP3     H1       HT       0.417000        1.0080           0
     64941 WT6      4081     TIP3     H2       HT       0.417000        1.0080           0
     64942 WT6      4094     TIP3     OH2      OT      -0.834000       15.9994           0
     64943 WT6      4094     TIP3     H1       HT       0.417000        1.0080           0
     64944 WT6      4094     TIP3     H2       HT       0.417000        1.0080           0
     64945 WT6      4097     TIP3     OH2      OT      -0.834000       15.9994           0
     64946 WT6      4097     TIP3     H1       HT       0.417000        1.0080           0
     64947 WT6      4097     TIP3     H2       HT       0.417000        1.0080           0
     64948 WT6      4104     TIP3     OH2      OT      -0.834000       15.9994           0
     64949 WT6      4104     TIP3     H1       HT       0.417000        1.0080           0
     64950 WT6      4104     TIP3     H2       HT       0.417000        1.0080           0
     64951 WT6      4141     TIP3     OH2      OT      -0.834000       15.9994           0
     64952 WT6      4141     TIP3     H1       HT       0.417000        1.0080           0
     64953 WT6      4141     TIP3     H2       HT       0.417000        1.0080           0
     64954 WT6      4159     TIP3     OH2      OT      -0.834000       15.9994           0
     64955 WT6      4159     TIP3     H1       HT       0.417000        1.0080           0
     64956 WT6      4159     TIP3     H2       HT       0.417000        1.0080           0
     64957 WT6      4184     TIP3     OH2      OT      -0.834000       15.9994           0
     64958 WT6      4184     TIP3     H1       HT       0.417000        1.0080           0
     64959 WT6      4184     TIP3     H2       HT       0.417000        1.0080           0
     64960 WT6      4187     TIP3     OH2      OT      -0.834000       15.9994           0
     64961 WT6      4187     TIP3     H1       HT       0.417000        1.0080           0
     64962 WT6      4187     TIP3     H2       HT       0.417000        1.0080           0
     64963 WT6      4219     TIP3     OH2      OT      -0.834000       15.9994           0
     64964 WT6      4219     TIP3     H1       HT       0.417000        1.0080           0
     64965 WT6      4219     TIP3     H2       HT       0.417000        1.0080           0
     64966 WT6      4227     TIP3     OH2      OT      -0.834000       15.9994           0
     64967 WT6      4227     TIP3     H1       HT       0.417000        1.0080           0
     64968 WT6      4227     TIP3     H2       HT       0.417000        1.0080           0
     64969 WT6      4243     TIP3     OH2      OT      -0.834000       15.9994           0
     64970 WT6      4243     TIP3     H1       HT       0.417000        1.0080           0
     64971 WT6      4243     TIP3     H2       HT       0.417000        1.0080           0
     64972 WT6      4267     TIP3     OH2      OT      -0.834000       15.9994           0
     64973 WT6      4267     TIP3     H1       HT       0.417000        1.0080           0
     64974 WT6      4267     TIP3     H2       HT       0.417000        1.0080           0
     64975 WT6      4268     TIP3     OH2      OT      -0.834000       15.9994           0
     64976 WT6      4268     TIP3     H1       HT       0.417000        1.0080           0
     64977 WT6      4268     TIP3     H2       HT       0.417000        1.0080           0
     64978 WT6      4287     TIP3     OH2      OT      -0.834000       15.9994           0
     64979 WT6      4287     TIP3     H1       HT       0.417000        1.0080           0
     64980 WT6      4287     TIP3     H2       HT       0.417000        1.0080           0
     64981 WT6      4290     TIP3     OH2      OT      -0.834000       15.9994           0
     64982 WT6      4290     TIP3     H1       HT       0.417000        1.0080           0
     64983 WT6      4290     TIP3     H2       HT       0.417000        1.0080           0
     64984 WT6      4329     TIP3     OH2      OT      -0.834000       15.9994           0
     64985 WT6      4329     TIP3     H1       HT       0.417000        1.0080           0
     64986 WT6      4329     TIP3     H2       HT       0.417000        1.0080           0
     64987 WT6      4330     TIP3     OH2      OT      -0.834000       15.9994           0
     64988 WT6      4330     TIP3     H1       HT       0.417000        1.0080           0
     64989 WT6      4330     TIP3     H2       HT       0.417000        1.0080           0
     64990 WT6      4350     TIP3     OH2      OT      -0.834000       15.9994           0
     64991 WT6      4350     TIP3     H1       HT       0.417000        1.0080           0
     64992 WT6      4350     TIP3     H2       HT       0.417000        1.0080           0
     64993 WT6      4351     TIP3     OH2      OT      -0.834000       15.9994           0
     64994 WT6      4351     TIP3     H1       HT       0.417000        1.0080           0
     64995 WT6      4351     TIP3     H2       HT       0.417000        1.0080           0
     64996 WT6      4352     TIP3     OH2      OT      -0.834000       15.9994           0
     64997 WT6      4352     TIP3     H1       HT       0.417000        1.0080           0
     64998 WT6      4352     TIP3     H2       HT       0.417000        1.0080           0
     64999 WT6      4356     TIP3     OH2      OT      -0.834000       15.9994           0
     65000 WT6      4356     TIP3     H1       HT       0.417000        1.0080           0
     65001 WT6      4356     TIP3     H2       HT       0.417000        1.0080           0
     65002 WT6      4357     TIP3     OH2      OT      -0.834000       15.9994           0
     65003 WT6      4357     TIP3     H1       HT       0.417000        1.0080           0
     65004 WT6      4357     TIP3     H2       HT       0.417000        1.0080           0
     65005 WT6      4363     TIP3     OH2      OT      -0.834000       15.9994           0
     65006 WT6      4363     TIP3     H1       HT       0.417000        1.0080           0
     65007 WT6      4363     TIP3     H2       HT       0.417000        1.0080           0
     65008 WT6      4387     TIP3     OH2      OT      -0.834000       15.9994           0
     65009 WT6      4387     TIP3     H1       HT       0.417000        1.0080           0
     65010 WT6      4387     TIP3     H2       HT       0.417000        1.0080           0
     65011 WT6      4391     TIP3     OH2      OT      -0.834000       15.9994           0
     65012 WT6      4391     TIP3     H1       HT       0.417000        1.0080           0
     65013 WT6      4391     TIP3     H2       HT       0.417000        1.0080           0
     65014 WT6      4392     TIP3     OH2      OT      -0.834000       15.9994           0
     65015 WT6      4392     TIP3     H1       HT       0.417000        1.0080           0
     65016 WT6      4392     TIP3     H2       HT       0.417000        1.0080           0
     65017 WT6      4394     TIP3     OH2      OT      -0.834000       15.9994           0
     65018 WT6      4394     TIP3     H1       HT       0.417000        1.0080           0
     65019 WT6      4394     TIP3     H2       HT       0.417000        1.0080           0
     65020 WT6      4395     TIP3     OH2      OT      -0.834000       15.9994           0
     65021 WT6      4395     TIP3     H1       HT       0.417000        1.0080           0
     65022 WT6      4395     TIP3     H2       HT       0.417000        1.0080           0
     65023 WT6      4480     TIP3     OH2      OT      -0.834000       15.9994           0
     65024 WT6      4480     TIP3     H1       HT       0.417000        1.0080           0
     65025 WT6      4480     TIP3     H2       HT       0.417000        1.0080           0
     65026 WT6      4497     TIP3     OH2      OT      -0.834000       15.9994           0
     65027 WT6      4497     TIP3     H1       HT       0.417000        1.0080           0
     65028 WT6      4497     TIP3     H2       HT       0.417000        1.0080           0
     65029 WT6      4501     TIP3     OH2      OT      -0.834000       15.9994           0
     65030 WT6      4501     TIP3     H1       HT       0.417000        1.0080           0
     65031 WT6      4501     TIP3     H2       HT       0.417000        1.0080           0
     65032 WT6      4515     TIP3     OH2      OT      -0.834000       15.9994           0
     65033 WT6      4515     TIP3     H1       HT       0.417000        1.0080           0
     65034 WT6      4515     TIP3     H2       HT       0.417000        1.0080           0
     65035 WT6      4519     TIP3     OH2      OT      -0.834000       15.9994           0
     65036 WT6      4519     TIP3     H1       HT       0.417000        1.0080           0
     65037 WT6      4519     TIP3     H2       HT       0.417000        1.0080           0
     65038 WT6      4523     TIP3     OH2      OT      -0.834000       15.9994           0
     65039 WT6      4523     TIP3     H1       HT       0.417000        1.0080           0
     65040 WT6      4523     TIP3     H2       HT       0.417000        1.0080           0
     65041 WT6      4537     TIP3     OH2      OT      -0.834000       15.9994           0
     65042 WT6      4537     TIP3     H1       HT       0.417000        1.0080           0
     65043 WT6      4537     TIP3     H2       HT       0.417000        1.0080           0
     65044 WT6      4540     TIP3     OH2      OT      -0.834000       15.9994           0
     65045 WT6      4540     TIP3     H1       HT       0.417000        1.0080           0
     65046 WT6      4540     TIP3     H2       HT       0.417000        1.0080           0
     65047 WT6      4553     TIP3     OH2      OT      -0.834000       15.9994           0
     65048 WT6      4553     TIP3     H1       HT       0.417000        1.0080           0
     65049 WT6      4553     TIP3     H2       HT       0.417000        1.0080           0
     65050 WT6      4559     TIP3     OH2      OT      -0.834000       15.9994           0
     65051 WT6      4559     TIP3     H1       HT       0.417000        1.0080           0
     65052 WT6      4559     TIP3     H2       HT       0.417000        1.0080           0
     65053 WT6      4578     TIP3     OH2      OT      -0.834000       15.9994           0
     65054 WT6      4578     TIP3     H1       HT       0.417000        1.0080           0
     65055 WT6      4578     TIP3     H2       HT       0.417000        1.0080           0
     65056 WT6      4603     TIP3     OH2      OT      -0.834000       15.9994           0
     65057 WT6      4603     TIP3     H1       HT       0.417000        1.0080           0
     65058 WT6      4603     TIP3     H2       HT       0.417000        1.0080           0
     65059 WT6      4673     TIP3     OH2      OT      -0.834000       15.9994           0
     65060 WT6      4673     TIP3     H1       HT       0.417000        1.0080           0
     65061 WT6      4673     TIP3     H2       HT       0.417000        1.0080           0
     65062 WT6      4759     TIP3     OH2      OT      -0.834000       15.9994           0
     65063 WT6      4759     TIP3     H1       HT       0.417000        1.0080           0
     65064 WT6      4759     TIP3     H2       HT       0.417000        1.0080           0
     65065 WT6      4773     TIP3     OH2      OT      -0.834000       15.9994           0
     65066 WT6      4773     TIP3     H1       HT       0.417000        1.0080           0
     65067 WT6      4773     TIP3     H2       HT       0.417000        1.0080           0
     65068 WT6      4794     TIP3     OH2      OT      -0.834000       15.9994           0
     65069 WT6      4794     TIP3     H1       HT       0.417000        1.0080           0
     65070 WT6      4794     TIP3     H2       HT       0.417000        1.0080           0
     65071 WT6      4798     TIP3     OH2      OT      -0.834000       15.9994           0
     65072 WT6      4798     TIP3     H1       HT       0.417000        1.0080           0
     65073 WT6      4798     TIP3     H2       HT       0.417000        1.0080           0
     65074 WT6      4809     TIP3     OH2      OT      -0.834000       15.9994           0
     65075 WT6      4809     TIP3     H1       HT       0.417000        1.0080           0
     65076 WT6      4809     TIP3     H2       HT       0.417000        1.0080           0
     65077 WT6      4813     TIP3     OH2      OT      -0.834000       15.9994           0
     65078 WT6      4813     TIP3     H1       HT       0.417000        1.0080           0
     65079 WT6      4813     TIP3     H2       HT       0.417000        1.0080           0
     65080 WT6      4816     TIP3     OH2      OT      -0.834000       15.9994           0
     65081 WT6      4816     TIP3     H1       HT       0.417000        1.0080           0
     65082 WT6      4816     TIP3     H2       HT       0.417000        1.0080           0
     65083 WT6      4837     TIP3     OH2      OT      -0.834000       15.9994           0
     65084 WT6      4837     TIP3     H1       HT       0.417000        1.0080           0
     65085 WT6      4837     TIP3     H2       HT       0.417000        1.0080           0
     65086 WT6      4849     TIP3     OH2      OT      -0.834000       15.9994           0
     65087 WT6      4849     TIP3     H1       HT       0.417000        1.0080           0
     65088 WT6      4849     TIP3     H2       HT       0.417000        1.0080           0
     65089 WT6      4857     TIP3     OH2      OT      -0.834000       15.9994           0
     65090 WT6      4857     TIP3     H1       HT       0.417000        1.0080           0
     65091 WT6      4857     TIP3     H2       HT       0.417000        1.0080           0
     65092 WT6      4981     TIP3     OH2      OT      -0.834000       15.9994           0
     65093 WT6      4981     TIP3     H1       HT       0.417000        1.0080           0
     65094 WT6      4981     TIP3     H2       HT       0.417000        1.0080           0
     65095 WT6      5025     TIP3     OH2      OT      -0.834000       15.9994           0
     65096 WT6      5025     TIP3     H1       HT       0.417000        1.0080           0
     65097 WT6      5025     TIP3     H2       HT       0.417000        1.0080           0
     65098 WT6      5090     TIP3     OH2      OT      -0.834000       15.9994           0
     65099 WT6      5090     TIP3     H1       HT       0.417000        1.0080           0
     65100 WT6      5090     TIP3     H2       HT       0.417000        1.0080           0
     65101 WT6      5097     TIP3     OH2      OT      -0.834000       15.9994           0
     65102 WT6      5097     TIP3     H1       HT       0.417000        1.0080           0
     65103 WT6      5097     TIP3     H2       HT       0.417000        1.0080           0
     65104 WT6      5129     TIP3     OH2      OT      -0.834000       15.9994           0
     65105 WT6      5129     TIP3     H1       HT       0.417000        1.0080           0
     65106 WT6      5129     TIP3     H2       HT       0.417000        1.0080           0
     65107 WT6      5173     TIP3     OH2      OT      -0.834000       15.9994           0
     65108 WT6      5173     TIP3     H1       HT       0.417000        1.0080           0
     65109 WT6      5173     TIP3     H2       HT       0.417000        1.0080           0
     65110 WT6      5190     TIP3     OH2      OT      -0.834000       15.9994           0
     65111 WT6      5190     TIP3     H1       HT       0.417000        1.0080           0
     65112 WT6      5190     TIP3     H2       HT       0.417000        1.0080           0
     65113 WT6      5191     TIP3     OH2      OT      -0.834000       15.9994           0
     65114 WT6      5191     TIP3     H1       HT       0.417000        1.0080           0
     65115 WT6      5191     TIP3     H2       HT       0.417000        1.0080           0
     65116 WT6      5214     TIP3     OH2      OT      -0.834000       15.9994           0
     65117 WT6      5214     TIP3     H1       HT       0.417000        1.0080           0
     65118 WT6      5214     TIP3     H2       HT       0.417000        1.0080           0
     65119 WT6      5231     TIP3     OH2      OT      -0.834000       15.9994           0
     65120 WT6      5231     TIP3     H1       HT       0.417000        1.0080           0
     65121 WT6      5231     TIP3     H2       HT       0.417000        1.0080           0
     65122 WT6      5253     TIP3     OH2      OT      -0.834000       15.9994           0
     65123 WT6      5253     TIP3     H1       HT       0.417000        1.0080           0
     65124 WT6      5253     TIP3     H2       HT       0.417000        1.0080           0
     65125 WT6      5274     TIP3     OH2      OT      -0.834000       15.9994           0
     65126 WT6      5274     TIP3     H1       HT       0.417000        1.0080           0
     65127 WT6      5274     TIP3     H2       HT       0.417000        1.0080           0
     65128 WT6      5277     TIP3     OH2      OT      -0.834000       15.9994           0
     65129 WT6      5277     TIP3     H1       HT       0.417000        1.0080           0
     65130 WT6      5277     TIP3     H2       HT       0.417000        1.0080           0
     65131 WT6      5294     TIP3     OH2      OT      -0.834000       15.9994           0
     65132 WT6      5294     TIP3     H1       HT       0.417000        1.0080           0
     65133 WT6      5294     TIP3     H2       HT       0.417000        1.0080           0
     65134 WT6      5320     TIP3     OH2      OT      -0.834000       15.9994           0
     65135 WT6      5320     TIP3     H1       HT       0.417000        1.0080           0
     65136 WT6      5320     TIP3     H2       HT       0.417000        1.0080           0
     65137 WT6      5341     TIP3     OH2      OT      -0.834000       15.9994           0
     65138 WT6      5341     TIP3     H1       HT       0.417000        1.0080           0
     65139 WT6      5341     TIP3     H2       HT       0.417000        1.0080           0
     65140 WT6      5356     TIP3     OH2      OT      -0.834000       15.9994           0
     65141 WT6      5356     TIP3     H1       HT       0.417000        1.0080           0
     65142 WT6      5356     TIP3     H2       HT       0.417000        1.0080           0
     65143 WT6      5393     TIP3     OH2      OT      -0.834000       15.9994           0
     65144 WT6      5393     TIP3     H1       HT       0.417000        1.0080           0
     65145 WT6      5393     TIP3     H2       HT       0.417000        1.0080           0
     65146 WT6      5421     TIP3     OH2      OT      -0.834000       15.9994           0
     65147 WT6      5421     TIP3     H1       HT       0.417000        1.0080           0
     65148 WT6      5421     TIP3     H2       HT       0.417000        1.0080           0
     65149 WT6      5674     TIP3     OH2      OT      -0.834000       15.9994           0
     65150 WT6      5674     TIP3     H1       HT       0.417000        1.0080           0
     65151 WT6      5674     TIP3     H2       HT       0.417000        1.0080           0
     65152 WT6      5716     TIP3     OH2      OT      -0.834000       15.9994           0
     65153 WT6      5716     TIP3     H1       HT       0.417000        1.0080           0
     65154 WT6      5716     TIP3     H2       HT       0.417000        1.0080           0
     65155 WT6      5717     TIP3     OH2      OT      -0.834000       15.9994           0
     65156 WT6      5717     TIP3     H1       HT       0.417000        1.0080           0
     65157 WT6      5717     TIP3     H2       HT       0.417000        1.0080           0
     65158 WT6      5730     TIP3     OH2      OT      -0.834000       15.9994           0
     65159 WT6      5730     TIP3     H1       HT       0.417000        1.0080           0
     65160 WT6      5730     TIP3     H2       HT       0.417000        1.0080           0
     65161 WT6      5827     TIP3     OH2      OT      -0.834000       15.9994           0
     65162 WT6      5827     TIP3     H1       HT       0.417000        1.0080           0
     65163 WT6      5827     TIP3     H2       HT       0.417000        1.0080           0
     65164 WT6      5899     TIP3     OH2      OT      -0.834000       15.9994           0
     65165 WT6      5899     TIP3     H1       HT       0.417000        1.0080           0
     65166 WT6      5899     TIP3     H2       HT       0.417000        1.0080           0
     65167 WT6      5901     TIP3     OH2      OT      -0.834000       15.9994           0
     65168 WT6      5901     TIP3     H1       HT       0.417000        1.0080           0
     65169 WT6      5901     TIP3     H2       HT       0.417000        1.0080           0
     65170 WT6      6098     TIP3     OH2      OT      -0.834000       15.9994           0
     65171 WT6      6098     TIP3     H1       HT       0.417000        1.0080           0
     65172 WT6      6098     TIP3     H2       HT       0.417000        1.0080           0
     65173 WT6      6158     TIP3     OH2      OT      -0.834000       15.9994           0
     65174 WT6      6158     TIP3     H1       HT       0.417000        1.0080           0
     65175 WT6      6158     TIP3     H2       HT       0.417000        1.0080           0
     65176 WT6      6240     TIP3     OH2      OT      -0.834000       15.9994           0
     65177 WT6      6240     TIP3     H1       HT       0.417000        1.0080           0
     65178 WT6      6240     TIP3     H2       HT       0.417000        1.0080           0
     65179 WT6      6350     TIP3     OH2      OT      -0.834000       15.9994           0
     65180 WT6      6350     TIP3     H1       HT       0.417000        1.0080           0
     65181 WT6      6350     TIP3     H2       HT       0.417000        1.0080           0
     65182 WT6      6671     TIP3     OH2      OT      -0.834000       15.9994           0
     65183 WT6      6671     TIP3     H1       HT       0.417000        1.0080           0
     65184 WT6      6671     TIP3     H2       HT       0.417000        1.0080           0
     65185 WT6      6726     TIP3     OH2      OT      -0.834000       15.9994           0
     65186 WT6      6726     TIP3     H1       HT       0.417000        1.0080           0
     65187 WT6      6726     TIP3     H2       HT       0.417000        1.0080           0
     65188 WT6      6980     TIP3     OH2      OT      -0.834000       15.9994           0
     65189 WT6      6980     TIP3     H1       HT       0.417000        1.0080           0
     65190 WT6      6980     TIP3     H2       HT       0.417000        1.0080           0
     65191 WT6      7141     TIP3     OH2      OT      -0.834000       15.9994           0
     65192 WT6      7141     TIP3     H1       HT       0.417000        1.0080           0
     65193 WT6      7141     TIP3     H2       HT       0.417000        1.0080           0
     65194 WT6      7222     TIP3     OH2      OT      -0.834000       15.9994           0
     65195 WT6      7222     TIP3     H1       HT       0.417000        1.0080           0
     65196 WT6      7222     TIP3     H2       HT       0.417000        1.0080           0
     65197 WT6      7479     TIP3     OH2      OT      -0.834000       15.9994           0
     65198 WT6      7479     TIP3     H1       HT       0.417000        1.0080           0
     65199 WT6      7479     TIP3     H2       HT       0.417000        1.0080           0
     65200 WT6      7510     TIP3     OH2      OT      -0.834000       15.9994           0
     65201 WT6      7510     TIP3     H1       HT       0.417000        1.0080           0
     65202 WT6      7510     TIP3     H2       HT       0.417000        1.0080           0
     65203 WT6      7563     TIP3     OH2      OT      -0.834000       15.9994           0
     65204 WT6      7563     TIP3     H1       HT       0.417000        1.0080           0
     65205 WT6      7563     TIP3     H2       HT       0.417000        1.0080           0
     65206 WT6      7583     TIP3     OH2      OT      -0.834000       15.9994           0
     65207 WT6      7583     TIP3     H1       HT       0.417000        1.0080           0
     65208 WT6      7583     TIP3     H2       HT       0.417000        1.0080           0
     65209 WT6      7603     TIP3     OH2      OT      -0.834000       15.9994           0
     65210 WT6      7603     TIP3     H1       HT       0.417000        1.0080           0
     65211 WT6      7603     TIP3     H2       HT       0.417000        1.0080           0
     65212 WT6      7605     TIP3     OH2      OT      -0.834000       15.9994           0
     65213 WT6      7605     TIP3     H1       HT       0.417000        1.0080           0
     65214 WT6      7605     TIP3     H2       HT       0.417000        1.0080           0
     65215 WT6      7607     TIP3     OH2      OT      -0.834000       15.9994           0
     65216 WT6      7607     TIP3     H1       HT       0.417000        1.0080           0
     65217 WT6      7607     TIP3     H2       HT       0.417000        1.0080           0
     65218 WT6      7630     TIP3     OH2      OT      -0.834000       15.9994           0
     65219 WT6      7630     TIP3     H1       HT       0.417000        1.0080           0
     65220 WT6      7630     TIP3     H2       HT       0.417000        1.0080           0
     65221 WT6      7631     TIP3     OH2      OT      -0.834000       15.9994           0
     65222 WT6      7631     TIP3     H1       HT       0.417000        1.0080           0
     65223 WT6      7631     TIP3     H2       HT       0.417000        1.0080           0
     65224 WT6      7647     TIP3     OH2      OT      -0.834000       15.9994           0
     65225 WT6      7647     TIP3     H1       HT       0.417000        1.0080           0
     65226 WT6      7647     TIP3     H2       HT       0.417000        1.0080           0
     65227 WT6      7650     TIP3     OH2      OT      -0.834000       15.9994           0
     65228 WT6      7650     TIP3     H1       HT       0.417000        1.0080           0
     65229 WT6      7650     TIP3     H2       HT       0.417000        1.0080           0
     65230 WT6      7707     TIP3     OH2      OT      -0.834000       15.9994           0
     65231 WT6      7707     TIP3     H1       HT       0.417000        1.0080           0
     65232 WT6      7707     TIP3     H2       HT       0.417000        1.0080           0
     65233 WT6      7715     TIP3     OH2      OT      -0.834000       15.9994           0
     65234 WT6      7715     TIP3     H1       HT       0.417000        1.0080           0
     65235 WT6      7715     TIP3     H2       HT       0.417000        1.0080           0
     65236 WT6      7716     TIP3     OH2      OT      -0.834000       15.9994           0
     65237 WT6      7716     TIP3     H1       HT       0.417000        1.0080           0
     65238 WT6      7716     TIP3     H2       HT       0.417000        1.0080           0
     65239 WT6      7739     TIP3     OH2      OT      -0.834000       15.9994           0
     65240 WT6      7739     TIP3     H1       HT       0.417000        1.0080           0
     65241 WT6      7739     TIP3     H2       HT       0.417000        1.0080           0
     65242 WT6      7748     TIP3     OH2      OT      -0.834000       15.9994           0
     65243 WT6      7748     TIP3     H1       HT       0.417000        1.0080           0
     65244 WT6      7748     TIP3     H2       HT       0.417000        1.0080           0
     65245 WT6      7833     TIP3     OH2      OT      -0.834000       15.9994           0
     65246 WT6      7833     TIP3     H1       HT       0.417000        1.0080           0
     65247 WT6      7833     TIP3     H2       HT       0.417000        1.0080           0
     65248 WT6      7944     TIP3     OH2      OT      -0.834000       15.9994           0
     65249 WT6      7944     TIP3     H1       HT       0.417000        1.0080           0
     65250 WT6      7944     TIP3     H2       HT       0.417000        1.0080           0
     65251 WT6      7945     TIP3     OH2      OT      -0.834000       15.9994           0
     65252 WT6      7945     TIP3     H1       HT       0.417000        1.0080           0
     65253 WT6      7945     TIP3     H2       HT       0.417000        1.0080           0
     65254 WT6      7959     TIP3     OH2      OT      -0.834000       15.9994           0
     65255 WT6      7959     TIP3     H1       HT       0.417000        1.0080           0
     65256 WT6      7959     TIP3     H2       HT       0.417000        1.0080           0
     65257 WT6      7979     TIP3     OH2      OT      -0.834000       15.9994           0
     65258 WT6      7979     TIP3     H1       HT       0.417000        1.0080           0
     65259 WT6      7979     TIP3     H2       HT       0.417000        1.0080           0
     65260 WT6      7985     TIP3     OH2      OT      -0.834000       15.9994           0
     65261 WT6      7985     TIP3     H1       HT       0.417000        1.0080           0
     65262 WT6      7985     TIP3     H2       HT       0.417000        1.0080           0
     65263 WT6      8023     TIP3     OH2      OT      -0.834000       15.9994           0
     65264 WT6      8023     TIP3     H1       HT       0.417000        1.0080           0
     65265 WT6      8023     TIP3     H2       HT       0.417000        1.0080           0
     65266 WT6      8024     TIP3     OH2      OT      -0.834000       15.9994           0
     65267 WT6      8024     TIP3     H1       HT       0.417000        1.0080           0
     65268 WT6      8024     TIP3     H2       HT       0.417000        1.0080           0
     65269 WT6      8029     TIP3     OH2      OT      -0.834000       15.9994           0
     65270 WT6      8029     TIP3     H1       HT       0.417000        1.0080           0
     65271 WT6      8029     TIP3     H2       HT       0.417000        1.0080           0
     65272 WT6      8046     TIP3     OH2      OT      -0.834000       15.9994           0
     65273 WT6      8046     TIP3     H1       HT       0.417000        1.0080           0
     65274 WT6      8046     TIP3     H2       HT       0.417000        1.0080           0
     65275 WT6      8064     TIP3     OH2      OT      -0.834000       15.9994           0
     65276 WT6      8064     TIP3     H1       HT       0.417000        1.0080           0
     65277 WT6      8064     TIP3     H2       HT       0.417000        1.0080           0
     65278 WT6      8067     TIP3     OH2      OT      -0.834000       15.9994           0
     65279 WT6      8067     TIP3     H1       HT       0.417000        1.0080           0
     65280 WT6      8067     TIP3     H2       HT       0.417000        1.0080           0
     65281 WT6      8068     TIP3     OH2      OT      -0.834000       15.9994           0
     65282 WT6      8068     TIP3     H1       HT       0.417000        1.0080           0
     65283 WT6      8068     TIP3     H2       HT       0.417000        1.0080           0
     65284 WT6      8136     TIP3     OH2      OT      -0.834000       15.9994           0
     65285 WT6      8136     TIP3     H1       HT       0.417000        1.0080           0
     65286 WT6      8136     TIP3     H2       HT       0.417000        1.0080           0
     65287 WT6      8173     TIP3     OH2      OT      -0.834000       15.9994           0
     65288 WT6      8173     TIP3     H1       HT       0.417000        1.0080           0
     65289 WT6      8173     TIP3     H2       HT       0.417000        1.0080           0
     65290 WT6      8174     TIP3     OH2      OT      -0.834000       15.9994           0
     65291 WT6      8174     TIP3     H1       HT       0.417000        1.0080           0
     65292 WT6      8174     TIP3     H2       HT       0.417000        1.0080           0
     65293 WT6      8193     TIP3     OH2      OT      -0.834000       15.9994           0
     65294 WT6      8193     TIP3     H1       HT       0.417000        1.0080           0
     65295 WT6      8193     TIP3     H2       HT       0.417000        1.0080           0
     65296 WT6      8218     TIP3     OH2      OT      -0.834000       15.9994           0
     65297 WT6      8218     TIP3     H1       HT       0.417000        1.0080           0
     65298 WT6      8218     TIP3     H2       HT       0.417000        1.0080           0
     65299 WT6      8242     TIP3     OH2      OT      -0.834000       15.9994           0
     65300 WT6      8242     TIP3     H1       HT       0.417000        1.0080           0
     65301 WT6      8242     TIP3     H2       HT       0.417000        1.0080           0
     65302 WT6      8260     TIP3     OH2      OT      -0.834000       15.9994           0
     65303 WT6      8260     TIP3     H1       HT       0.417000        1.0080           0
     65304 WT6      8260     TIP3     H2       HT       0.417000        1.0080           0
     65305 WT6      8278     TIP3     OH2      OT      -0.834000       15.9994           0
     65306 WT6      8278     TIP3     H1       HT       0.417000        1.0080           0
     65307 WT6      8278     TIP3     H2       HT       0.417000        1.0080           0
     65308 WT6      8364     TIP3     OH2      OT      -0.834000       15.9994           0
     65309 WT6      8364     TIP3     H1       HT       0.417000        1.0080           0
     65310 WT6      8364     TIP3     H2       HT       0.417000        1.0080           0
     65311 WT6      8383     TIP3     OH2      OT      -0.834000       15.9994           0
     65312 WT6      8383     TIP3     H1       HT       0.417000        1.0080           0
     65313 WT6      8383     TIP3     H2       HT       0.417000        1.0080           0
     65314 WT6      8403     TIP3     OH2      OT      -0.834000       15.9994           0
     65315 WT6      8403     TIP3     H1       HT       0.417000        1.0080           0
     65316 WT6      8403     TIP3     H2       HT       0.417000        1.0080           0
     65317 WT6      8411     TIP3     OH2      OT      -0.834000       15.9994           0
     65318 WT6      8411     TIP3     H1       HT       0.417000        1.0080           0
     65319 WT6      8411     TIP3     H2       HT       0.417000        1.0080           0
     65320 WT6      8425     TIP3     OH2      OT      -0.834000       15.9994           0
     65321 WT6      8425     TIP3     H1       HT       0.417000        1.0080           0
     65322 WT6      8425     TIP3     H2       HT       0.417000        1.0080           0
     65323 WT6      8441     TIP3     OH2      OT      -0.834000       15.9994           0
     65324 WT6      8441     TIP3     H1       HT       0.417000        1.0080           0
     65325 WT6      8441     TIP3     H2       HT       0.417000        1.0080           0
     65326 WT6      8466     TIP3     OH2      OT      -0.834000       15.9994           0
     65327 WT6      8466     TIP3     H1       HT       0.417000        1.0080           0
     65328 WT6      8466     TIP3     H2       HT       0.417000        1.0080           0
     65329 WT6      8468     TIP3     OH2      OT      -0.834000       15.9994           0
     65330 WT6      8468     TIP3     H1       HT       0.417000        1.0080           0
     65331 WT6      8468     TIP3     H2       HT       0.417000        1.0080           0
     65332 WT6      8488     TIP3     OH2      OT      -0.834000       15.9994           0
     65333 WT6      8488     TIP3     H1       HT       0.417000        1.0080           0
     65334 WT6      8488     TIP3     H2       HT       0.417000        1.0080           0
     65335 WT6      8491     TIP3     OH2      OT      -0.834000       15.9994           0
     65336 WT6      8491     TIP3     H1       HT       0.417000        1.0080           0
     65337 WT6      8491     TIP3     H2       HT       0.417000        1.0080           0
     65338 WT6      8528     TIP3     OH2      OT      -0.834000       15.9994           0
     65339 WT6      8528     TIP3     H1       HT       0.417000        1.0080           0
     65340 WT6      8528     TIP3     H2       HT       0.417000        1.0080           0
     65341 WT6      8534     TIP3     OH2      OT      -0.834000       15.9994           0
     65342 WT6      8534     TIP3     H1       HT       0.417000        1.0080           0
     65343 WT6      8534     TIP3     H2       HT       0.417000        1.0080           0
     65344 WT6      8536     TIP3     OH2      OT      -0.834000       15.9994           0
     65345 WT6      8536     TIP3     H1       HT       0.417000        1.0080           0
     65346 WT6      8536     TIP3     H2       HT       0.417000        1.0080           0
     65347 WT6      8548     TIP3     OH2      OT      -0.834000       15.9994           0
     65348 WT6      8548     TIP3     H1       HT       0.417000        1.0080           0
     65349 WT6      8548     TIP3     H2       HT       0.417000        1.0080           0
     65350 WT6      8549     TIP3     OH2      OT      -0.834000       15.9994           0
     65351 WT6      8549     TIP3     H1       HT       0.417000        1.0080           0
     65352 WT6      8549     TIP3     H2       HT       0.417000        1.0080           0
     65353 WT6      8551     TIP3     OH2      OT      -0.834000       15.9994           0
     65354 WT6      8551     TIP3     H1       HT       0.417000        1.0080           0
     65355 WT6      8551     TIP3     H2       HT       0.417000        1.0080           0
     65356 WT6      8556     TIP3     OH2      OT      -0.834000       15.9994           0
     65357 WT6      8556     TIP3     H1       HT       0.417000        1.0080           0
     65358 WT6      8556     TIP3     H2       HT       0.417000        1.0080           0
     65359 WT6      8558     TIP3     OH2      OT      -0.834000       15.9994           0
     65360 WT6      8558     TIP3     H1       HT       0.417000        1.0080           0
     65361 WT6      8558     TIP3     H2       HT       0.417000        1.0080           0
     65362 WT6      8574     TIP3     OH2      OT      -0.834000       15.9994           0
     65363 WT6      8574     TIP3     H1       HT       0.417000        1.0080           0
     65364 WT6      8574     TIP3     H2       HT       0.417000        1.0080           0
     65365 WT6      8576     TIP3     OH2      OT      -0.834000       15.9994           0
     65366 WT6      8576     TIP3     H1       HT       0.417000        1.0080           0
     65367 WT6      8576     TIP3     H2       HT       0.417000        1.0080           0
     65368 WT6      8589     TIP3     OH2      OT      -0.834000       15.9994           0
     65369 WT6      8589     TIP3     H1       HT       0.417000        1.0080           0
     65370 WT6      8589     TIP3     H2       HT       0.417000        1.0080           0
     65371 WT6      8613     TIP3     OH2      OT      -0.834000       15.9994           0
     65372 WT6      8613     TIP3     H1       HT       0.417000        1.0080           0
     65373 WT6      8613     TIP3     H2       HT       0.417000        1.0080           0
     65374 WT6      8617     TIP3     OH2      OT      -0.834000       15.9994           0
     65375 WT6      8617     TIP3     H1       HT       0.417000        1.0080           0
     65376 WT6      8617     TIP3     H2       HT       0.417000        1.0080           0
     65377 WT6      8632     TIP3     OH2      OT      -0.834000       15.9994           0
     65378 WT6      8632     TIP3     H1       HT       0.417000        1.0080           0
     65379 WT6      8632     TIP3     H2       HT       0.417000        1.0080           0
     65380 WT6      8653     TIP3     OH2      OT      -0.834000       15.9994           0
     65381 WT6      8653     TIP3     H1       HT       0.417000        1.0080           0
     65382 WT6      8653     TIP3     H2       HT       0.417000        1.0080           0
     65383 WT6      8661     TIP3     OH2      OT      -0.834000       15.9994           0
     65384 WT6      8661     TIP3     H1       HT       0.417000        1.0080           0
     65385 WT6      8661     TIP3     H2       HT       0.417000        1.0080           0
     65386 WT6      8662     TIP3     OH2      OT      -0.834000       15.9994           0
     65387 WT6      8662     TIP3     H1       HT       0.417000        1.0080           0
     65388 WT6      8662     TIP3     H2       HT       0.417000        1.0080           0
     65389 WT6      8675     TIP3     OH2      OT      -0.834000       15.9994           0
     65390 WT6      8675     TIP3     H1       HT       0.417000        1.0080           0
     65391 WT6      8675     TIP3     H2       HT       0.417000        1.0080           0
     65392 WT6      8677     TIP3     OH2      OT      -0.834000       15.9994           0
     65393 WT6      8677     TIP3     H1       HT       0.417000        1.0080           0
     65394 WT6      8677     TIP3     H2       HT       0.417000        1.0080           0
     65395 WT6      8679     TIP3     OH2      OT      -0.834000       15.9994           0
     65396 WT6      8679     TIP3     H1       HT       0.417000        1.0080           0
     65397 WT6      8679     TIP3     H2       HT       0.417000        1.0080           0
     65398 WT6      8683     TIP3     OH2      OT      -0.834000       15.9994           0
     65399 WT6      8683     TIP3     H1       HT       0.417000        1.0080           0
     65400 WT6      8683     TIP3     H2       HT       0.417000        1.0080           0
     65401 WT6      8691     TIP3     OH2      OT      -0.834000       15.9994           0
     65402 WT6      8691     TIP3     H1       HT       0.417000        1.0080           0
     65403 WT6      8691     TIP3     H2       HT       0.417000        1.0080           0
     65404 WT6      8695     TIP3     OH2      OT      -0.834000       15.9994           0
     65405 WT6      8695     TIP3     H1       HT       0.417000        1.0080           0
     65406 WT6      8695     TIP3     H2       HT       0.417000        1.0080           0
     65407 WT6      8699     TIP3     OH2      OT      -0.834000       15.9994           0
     65408 WT6      8699     TIP3     H1       HT       0.417000        1.0080           0
     65409 WT6      8699     TIP3     H2       HT       0.417000        1.0080           0
     65410 WT6      8701     TIP3     OH2      OT      -0.834000       15.9994           0
     65411 WT6      8701     TIP3     H1       HT       0.417000        1.0080           0
     65412 WT6      8701     TIP3     H2       HT       0.417000        1.0080           0
     65413 WT6      8721     TIP3     OH2      OT      -0.834000       15.9994           0
     65414 WT6      8721     TIP3     H1       HT       0.417000        1.0080           0
     65415 WT6      8721     TIP3     H2       HT       0.417000        1.0080           0
     65416 WT6      8722     TIP3     OH2      OT      -0.834000       15.9994           0
     65417 WT6      8722     TIP3     H1       HT       0.417000        1.0080           0
     65418 WT6      8722     TIP3     H2       HT       0.417000        1.0080           0
     65419 WT6      8760     TIP3     OH2      OT      -0.834000       15.9994           0
     65420 WT6      8760     TIP3     H1       HT       0.417000        1.0080           0
     65421 WT6      8760     TIP3     H2       HT       0.417000        1.0080           0
     65422 WT6      8761     TIP3     OH2      OT      -0.834000       15.9994           0
     65423 WT6      8761     TIP3     H1       HT       0.417000        1.0080           0
     65424 WT6      8761     TIP3     H2       HT       0.417000        1.0080           0
     65425 WT6      8780     TIP3     OH2      OT      -0.834000       15.9994           0
     65426 WT6      8780     TIP3     H1       HT       0.417000        1.0080           0
     65427 WT6      8780     TIP3     H2       HT       0.417000        1.0080           0
     65428 WT6      8800     TIP3     OH2      OT      -0.834000       15.9994           0
     65429 WT6      8800     TIP3     H1       HT       0.417000        1.0080           0
     65430 WT6      8800     TIP3     H2       HT       0.417000        1.0080           0
     65431 WT6      8801     TIP3     OH2      OT      -0.834000       15.9994           0
     65432 WT6      8801     TIP3     H1       HT       0.417000        1.0080           0
     65433 WT6      8801     TIP3     H2       HT       0.417000        1.0080           0
     65434 WT6      8809     TIP3     OH2      OT      -0.834000       15.9994           0
     65435 WT6      8809     TIP3     H1       HT       0.417000        1.0080           0
     65436 WT6      8809     TIP3     H2       HT       0.417000        1.0080           0
     65437 WT6      8822     TIP3     OH2      OT      -0.834000       15.9994           0
     65438 WT6      8822     TIP3     H1       HT       0.417000        1.0080           0
     65439 WT6      8822     TIP3     H2       HT       0.417000        1.0080           0
     65440 WT6      8829     TIP3     OH2      OT      -0.834000       15.9994           0
     65441 WT6      8829     TIP3     H1       HT       0.417000        1.0080           0
     65442 WT6      8829     TIP3     H2       HT       0.417000        1.0080           0
     65443 WT6      8843     TIP3     OH2      OT      -0.834000       15.9994           0
     65444 WT6      8843     TIP3     H1       HT       0.417000        1.0080           0
     65445 WT6      8843     TIP3     H2       HT       0.417000        1.0080           0
     65446 WT6      8845     TIP3     OH2      OT      -0.834000       15.9994           0
     65447 WT6      8845     TIP3     H1       HT       0.417000        1.0080           0
     65448 WT6      8845     TIP3     H2       HT       0.417000        1.0080           0
     65449 WT6      8851     TIP3     OH2      OT      -0.834000       15.9994           0
     65450 WT6      8851     TIP3     H1       HT       0.417000        1.0080           0
     65451 WT6      8851     TIP3     H2       HT       0.417000        1.0080           0
     65452 WT6      8865     TIP3     OH2      OT      -0.834000       15.9994           0
     65453 WT6      8865     TIP3     H1       HT       0.417000        1.0080           0
     65454 WT6      8865     TIP3     H2       HT       0.417000        1.0080           0
     65455 WT6      8869     TIP3     OH2      OT      -0.834000       15.9994           0
     65456 WT6      8869     TIP3     H1       HT       0.417000        1.0080           0
     65457 WT6      8869     TIP3     H2       HT       0.417000        1.0080           0
     65458 WT6      8887     TIP3     OH2      OT      -0.834000       15.9994           0
     65459 WT6      8887     TIP3     H1       HT       0.417000        1.0080           0
     65460 WT6      8887     TIP3     H2       HT       0.417000        1.0080           0
     65461 WT6      8890     TIP3     OH2      OT      -0.834000       15.9994           0
     65462 WT6      8890     TIP3     H1       HT       0.417000        1.0080           0
     65463 WT6      8890     TIP3     H2       HT       0.417000        1.0080           0
     65464 WT6      8895     TIP3     OH2      OT      -0.834000       15.9994           0
     65465 WT6      8895     TIP3     H1       HT       0.417000        1.0080           0
     65466 WT6      8895     TIP3     H2       HT       0.417000        1.0080           0
     65467 WT6      8903     TIP3     OH2      OT      -0.834000       15.9994           0
     65468 WT6      8903     TIP3     H1       HT       0.417000        1.0080           0
     65469 WT6      8903     TIP3     H2       HT       0.417000        1.0080           0
     65470 WT6      8905     TIP3     OH2      OT      -0.834000       15.9994           0
     65471 WT6      8905     TIP3     H1       HT       0.417000        1.0080           0
     65472 WT6      8905     TIP3     H2       HT       0.417000        1.0080           0
     65473 WT6      8906     TIP3     OH2      OT      -0.834000       15.9994           0
     65474 WT6      8906     TIP3     H1       HT       0.417000        1.0080           0
     65475 WT6      8906     TIP3     H2       HT       0.417000        1.0080           0
     65476 WT6      8908     TIP3     OH2      OT      -0.834000       15.9994           0
     65477 WT6      8908     TIP3     H1       HT       0.417000        1.0080           0
     65478 WT6      8908     TIP3     H2       HT       0.417000        1.0080           0
     65479 WT6      8926     TIP3     OH2      OT      -0.834000       15.9994           0
     65480 WT6      8926     TIP3     H1       HT       0.417000        1.0080           0
     65481 WT6      8926     TIP3     H2       HT       0.417000        1.0080           0
     65482 WT6      8927     TIP3     OH2      OT      -0.834000       15.9994           0
     65483 WT6      8927     TIP3     H1       HT       0.417000        1.0080           0
     65484 WT6      8927     TIP3     H2       HT       0.417000        1.0080           0
     65485 WT6      8931     TIP3     OH2      OT      -0.834000       15.9994           0
     65486 WT6      8931     TIP3     H1       HT       0.417000        1.0080           0
     65487 WT6      8931     TIP3     H2       HT       0.417000        1.0080           0
     65488 WT6      8932     TIP3     OH2      OT      -0.834000       15.9994           0
     65489 WT6      8932     TIP3     H1       HT       0.417000        1.0080           0
     65490 WT6      8932     TIP3     H2       HT       0.417000        1.0080           0
     65491 WT6      8935     TIP3     OH2      OT      -0.834000       15.9994           0
     65492 WT6      8935     TIP3     H1       HT       0.417000        1.0080           0
     65493 WT6      8935     TIP3     H2       HT       0.417000        1.0080           0
     65494 WT6      8949     TIP3     OH2      OT      -0.834000       15.9994           0
     65495 WT6      8949     TIP3     H1       HT       0.417000        1.0080           0
     65496 WT6      8949     TIP3     H2       HT       0.417000        1.0080           0
     65497 WT6      8952     TIP3     OH2      OT      -0.834000       15.9994           0
     65498 WT6      8952     TIP3     H1       HT       0.417000        1.0080           0
     65499 WT6      8952     TIP3     H2       HT       0.417000        1.0080           0
     65500 WT6      8954     TIP3     OH2      OT      -0.834000       15.9994           0
     65501 WT6      8954     TIP3     H1       HT       0.417000        1.0080           0
     65502 WT6      8954     TIP3     H2       HT       0.417000        1.0080           0
     65503 WT6      8956     TIP3     OH2      OT      -0.834000       15.9994           0
     65504 WT6      8956     TIP3     H1       HT       0.417000        1.0080           0
     65505 WT6      8956     TIP3     H2       HT       0.417000        1.0080           0
     65506 WT6      8970     TIP3     OH2      OT      -0.834000       15.9994           0
     65507 WT6      8970     TIP3     H1       HT       0.417000        1.0080           0
     65508 WT6      8970     TIP3     H2       HT       0.417000        1.0080           0
     65509 WT6      8972     TIP3     OH2      OT      -0.834000       15.9994           0
     65510 WT6      8972     TIP3     H1       HT       0.417000        1.0080           0
     65511 WT6      8972     TIP3     H2       HT       0.417000        1.0080           0
     65512 WT6      8973     TIP3     OH2      OT      -0.834000       15.9994           0
     65513 WT6      8973     TIP3     H1       HT       0.417000        1.0080           0
     65514 WT6      8973     TIP3     H2       HT       0.417000        1.0080           0
     65515 WT6      8976     TIP3     OH2      OT      -0.834000       15.9994           0
     65516 WT6      8976     TIP3     H1       HT       0.417000        1.0080           0
     65517 WT6      8976     TIP3     H2       HT       0.417000        1.0080           0
     65518 WT6      8977     TIP3     OH2      OT      -0.834000       15.9994           0
     65519 WT6      8977     TIP3     H1       HT       0.417000        1.0080           0
     65520 WT6      8977     TIP3     H2       HT       0.417000        1.0080           0
     65521 WT6      8988     TIP3     OH2      OT      -0.834000       15.9994           0
     65522 WT6      8988     TIP3     H1       HT       0.417000        1.0080           0
     65523 WT6      8988     TIP3     H2       HT       0.417000        1.0080           0
     65524 WT6      9013     TIP3     OH2      OT      -0.834000       15.9994           0
     65525 WT6      9013     TIP3     H1       HT       0.417000        1.0080           0
     65526 WT6      9013     TIP3     H2       HT       0.417000        1.0080           0
     65527 WT6      9015     TIP3     OH2      OT      -0.834000       15.9994           0
     65528 WT6      9015     TIP3     H1       HT       0.417000        1.0080           0
     65529 WT6      9015     TIP3     H2       HT       0.417000        1.0080           0
     65530 WT6      9034     TIP3     OH2      OT      -0.834000       15.9994           0
     65531 WT6      9034     TIP3     H1       HT       0.417000        1.0080           0
     65532 WT6      9034     TIP3     H2       HT       0.417000        1.0080           0
     65533 WT6      9035     TIP3     OH2      OT      -0.834000       15.9994           0
     65534 WT6      9035     TIP3     H1       HT       0.417000        1.0080           0
     65535 WT6      9035     TIP3     H2       HT       0.417000        1.0080           0
     65536 WT6      9047     TIP3     OH2      OT      -0.834000       15.9994           0
     65537 WT6      9047     TIP3     H1       HT       0.417000        1.0080           0
     65538 WT6      9047     TIP3     H2       HT       0.417000        1.0080           0
     65539 WT6      9054     TIP3     OH2      OT      -0.834000       15.9994           0
     65540 WT6      9054     TIP3     H1       HT       0.417000        1.0080           0
     65541 WT6      9054     TIP3     H2       HT       0.417000        1.0080           0
     65542 WT6      9055     TIP3     OH2      OT      -0.834000       15.9994           0
     65543 WT6      9055     TIP3     H1       HT       0.417000        1.0080           0
     65544 WT6      9055     TIP3     H2       HT       0.417000        1.0080           0
     65545 WT6      9058     TIP3     OH2      OT      -0.834000       15.9994           0
     65546 WT6      9058     TIP3     H1       HT       0.417000        1.0080           0
     65547 WT6      9058     TIP3     H2       HT       0.417000        1.0080           0
     65548 WT6      9073     TIP3     OH2      OT      -0.834000       15.9994           0
     65549 WT6      9073     TIP3     H1       HT       0.417000        1.0080           0
     65550 WT6      9073     TIP3     H2       HT       0.417000        1.0080           0
     65551 WT6      9077     TIP3     OH2      OT      -0.834000       15.9994           0
     65552 WT6      9077     TIP3     H1       HT       0.417000        1.0080           0
     65553 WT6      9077     TIP3     H2       HT       0.417000        1.0080           0
     65554 WT6      9079     TIP3     OH2      OT      -0.834000       15.9994           0
     65555 WT6      9079     TIP3     H1       HT       0.417000        1.0080           0
     65556 WT6      9079     TIP3     H2       HT       0.417000        1.0080           0
     65557 WT6      9080     TIP3     OH2      OT      -0.834000       15.9994           0
     65558 WT6      9080     TIP3     H1       HT       0.417000        1.0080           0
     65559 WT6      9080     TIP3     H2       HT       0.417000        1.0080           0
     65560 WT6      9082     TIP3     OH2      OT      -0.834000       15.9994           0
     65561 WT6      9082     TIP3     H1       HT       0.417000        1.0080           0
     65562 WT6      9082     TIP3     H2       HT       0.417000        1.0080           0
     65563 WT6      9093     TIP3     OH2      OT      -0.834000       15.9994           0
     65564 WT6      9093     TIP3     H1       HT       0.417000        1.0080           0
     65565 WT6      9093     TIP3     H2       HT       0.417000        1.0080           0
     65566 WT6      9096     TIP3     OH2      OT      -0.834000       15.9994           0
     65567 WT6      9096     TIP3     H1       HT       0.417000        1.0080           0
     65568 WT6      9096     TIP3     H2       HT       0.417000        1.0080           0
     65569 WT6      9097     TIP3     OH2      OT      -0.834000       15.9994           0
     65570 WT6      9097     TIP3     H1       HT       0.417000        1.0080           0
     65571 WT6      9097     TIP3     H2       HT       0.417000        1.0080           0
     65572 WT6      9116     TIP3     OH2      OT      -0.834000       15.9994           0
     65573 WT6      9116     TIP3     H1       HT       0.417000        1.0080           0
     65574 WT6      9116     TIP3     H2       HT       0.417000        1.0080           0
     65575 WT6      9124     TIP3     OH2      OT      -0.834000       15.9994           0
     65576 WT6      9124     TIP3     H1       HT       0.417000        1.0080           0
     65577 WT6      9124     TIP3     H2       HT       0.417000        1.0080           0
     65578 WT6      9125     TIP3     OH2      OT      -0.834000       15.9994           0
     65579 WT6      9125     TIP3     H1       HT       0.417000        1.0080           0
     65580 WT6      9125     TIP3     H2       HT       0.417000        1.0080           0
     65581 WT6      9136     TIP3     OH2      OT      -0.834000       15.9994           0
     65582 WT6      9136     TIP3     H1       HT       0.417000        1.0080           0
     65583 WT6      9136     TIP3     H2       HT       0.417000        1.0080           0
     65584 WT6      9143     TIP3     OH2      OT      -0.834000       15.9994           0
     65585 WT6      9143     TIP3     H1       HT       0.417000        1.0080           0
     65586 WT6      9143     TIP3     H2       HT       0.417000        1.0080           0
     65587 WT6      9144     TIP3     OH2      OT      -0.834000       15.9994           0
     65588 WT6      9144     TIP3     H1       HT       0.417000        1.0080           0
     65589 WT6      9144     TIP3     H2       HT       0.417000        1.0080           0
     65590 WT6      9145     TIP3     OH2      OT      -0.834000       15.9994           0
     65591 WT6      9145     TIP3     H1       HT       0.417000        1.0080           0
     65592 WT6      9145     TIP3     H2       HT       0.417000        1.0080           0
     65593 WT6      9157     TIP3     OH2      OT      -0.834000       15.9994           0
     65594 WT6      9157     TIP3     H1       HT       0.417000        1.0080           0
     65595 WT6      9157     TIP3     H2       HT       0.417000        1.0080           0
     65596 WT6      9158     TIP3     OH2      OT      -0.834000       15.9994           0
     65597 WT6      9158     TIP3     H1       HT       0.417000        1.0080           0
     65598 WT6      9158     TIP3     H2       HT       0.417000        1.0080           0
     65599 WT6      9161     TIP3     OH2      OT      -0.834000       15.9994           0
     65600 WT6      9161     TIP3     H1       HT       0.417000        1.0080           0
     65601 WT6      9161     TIP3     H2       HT       0.417000        1.0080           0
     65602 WT6      9162     TIP3     OH2      OT      -0.834000       15.9994           0
     65603 WT6      9162     TIP3     H1       HT       0.417000        1.0080           0
     65604 WT6      9162     TIP3     H2       HT       0.417000        1.0080           0
     65605 WT6      9180     TIP3     OH2      OT      -0.834000       15.9994           0
     65606 WT6      9180     TIP3     H1       HT       0.417000        1.0080           0
     65607 WT6      9180     TIP3     H2       HT       0.417000        1.0080           0
     65608 WT6      9181     TIP3     OH2      OT      -0.834000       15.9994           0
     65609 WT6      9181     TIP3     H1       HT       0.417000        1.0080           0
     65610 WT6      9181     TIP3     H2       HT       0.417000        1.0080           0
     65611 WT6      9182     TIP3     OH2      OT      -0.834000       15.9994           0
     65612 WT6      9182     TIP3     H1       HT       0.417000        1.0080           0
     65613 WT6      9182     TIP3     H2       HT       0.417000        1.0080           0
     65614 WT6      9183     TIP3     OH2      OT      -0.834000       15.9994           0
     65615 WT6      9183     TIP3     H1       HT       0.417000        1.0080           0
     65616 WT6      9183     TIP3     H2       HT       0.417000        1.0080           0
     65617 WT6      9184     TIP3     OH2      OT      -0.834000       15.9994           0
     65618 WT6      9184     TIP3     H1       HT       0.417000        1.0080           0
     65619 WT6      9184     TIP3     H2       HT       0.417000        1.0080           0
     65620 WT6      9185     TIP3     OH2      OT      -0.834000       15.9994           0
     65621 WT6      9185     TIP3     H1       HT       0.417000        1.0080           0
     65622 WT6      9185     TIP3     H2       HT       0.417000        1.0080           0
     65623 WT6      9186     TIP3     OH2      OT      -0.834000       15.9994           0
     65624 WT6      9186     TIP3     H1       HT       0.417000        1.0080           0
     65625 WT6      9186     TIP3     H2       HT       0.417000        1.0080           0
     65626 WT6      9198     TIP3     OH2      OT      -0.834000       15.9994           0
     65627 WT6      9198     TIP3     H1       HT       0.417000        1.0080           0
     65628 WT6      9198     TIP3     H2       HT       0.417000        1.0080           0
     65629 WT6      9222     TIP3     OH2      OT      -0.834000       15.9994           0
     65630 WT6      9222     TIP3     H1       HT       0.417000        1.0080           0
     65631 WT6      9222     TIP3     H2       HT       0.417000        1.0080           0
     65632 WT6      9223     TIP3     OH2      OT      -0.834000       15.9994           0
     65633 WT6      9223     TIP3     H1       HT       0.417000        1.0080           0
     65634 WT6      9223     TIP3     H2       HT       0.417000        1.0080           0
     65635 WT6      9225     TIP3     OH2      OT      -0.834000       15.9994           0
     65636 WT6      9225     TIP3     H1       HT       0.417000        1.0080           0
     65637 WT6      9225     TIP3     H2       HT       0.417000        1.0080           0
     65638 WT6      9226     TIP3     OH2      OT      -0.834000       15.9994           0
     65639 WT6      9226     TIP3     H1       HT       0.417000        1.0080           0
     65640 WT6      9226     TIP3     H2       HT       0.417000        1.0080           0
     65641 WT6      9227     TIP3     OH2      OT      -0.834000       15.9994           0
     65642 WT6      9227     TIP3     H1       HT       0.417000        1.0080           0
     65643 WT6      9227     TIP3     H2       HT       0.417000        1.0080           0
     65644 WT6      9228     TIP3     OH2      OT      -0.834000       15.9994           0
     65645 WT6      9228     TIP3     H1       HT       0.417000        1.0080           0
     65646 WT6      9228     TIP3     H2       HT       0.417000        1.0080           0
     65647 WT6      9241     TIP3     OH2      OT      -0.834000       15.9994           0
     65648 WT6      9241     TIP3     H1       HT       0.417000        1.0080           0
     65649 WT6      9241     TIP3     H2       HT       0.417000        1.0080           0
     65650 WT6      9244     TIP3     OH2      OT      -0.834000       15.9994           0
     65651 WT6      9244     TIP3     H1       HT       0.417000        1.0080           0
     65652 WT6      9244     TIP3     H2       HT       0.417000        1.0080           0
     65653 WT6      9250     TIP3     OH2      OT      -0.834000       15.9994           0
     65654 WT6      9250     TIP3     H1       HT       0.417000        1.0080           0
     65655 WT6      9250     TIP3     H2       HT       0.417000        1.0080           0
     65656 WT6      9259     TIP3     OH2      OT      -0.834000       15.9994           0
     65657 WT6      9259     TIP3     H1       HT       0.417000        1.0080           0
     65658 WT6      9259     TIP3     H2       HT       0.417000        1.0080           0
     65659 WT7      5        TIP3     OH2      OT      -0.834000       15.9994           0
     65660 WT7      5        TIP3     H1       HT       0.417000        1.0080           0
     65661 WT7      5        TIP3     H2       HT       0.417000        1.0080           0
     65662 WT7      7        TIP3     OH2      OT      -0.834000       15.9994           0
     65663 WT7      7        TIP3     H1       HT       0.417000        1.0080           0
     65664 WT7      7        TIP3     H2       HT       0.417000        1.0080           0
     65665 WT7      8        TIP3     OH2      OT      -0.834000       15.9994           0
     65666 WT7      8        TIP3     H1       HT       0.417000        1.0080           0
     65667 WT7      8        TIP3     H2       HT       0.417000        1.0080           0
     65668 WT7      15       TIP3     OH2      OT      -0.834000       15.9994           0
     65669 WT7      15       TIP3     H1       HT       0.417000        1.0080           0
     65670 WT7      15       TIP3     H2       HT       0.417000        1.0080           0
     65671 WT7      17       TIP3     OH2      OT      -0.834000       15.9994           0
     65672 WT7      17       TIP3     H1       HT       0.417000        1.0080           0
     65673 WT7      17       TIP3     H2       HT       0.417000        1.0080           0
     65674 WT7      19       TIP3     OH2      OT      -0.834000       15.9994           0
     65675 WT7      19       TIP3     H1       HT       0.417000        1.0080           0
     65676 WT7      19       TIP3     H2       HT       0.417000        1.0080           0
     65677 WT7      20       TIP3     OH2      OT      -0.834000       15.9994           0
     65678 WT7      20       TIP3     H1       HT       0.417000        1.0080           0
     65679 WT7      20       TIP3     H2       HT       0.417000        1.0080           0
     65680 WT7      21       TIP3     OH2      OT      -0.834000       15.9994           0
     65681 WT7      21       TIP3     H1       HT       0.417000        1.0080           0
     65682 WT7      21       TIP3     H2       HT       0.417000        1.0080           0
     65683 WT7      26       TIP3     OH2      OT      -0.834000       15.9994           0
     65684 WT7      26       TIP3     H1       HT       0.417000        1.0080           0
     65685 WT7      26       TIP3     H2       HT       0.417000        1.0080           0
     65686 WT7      29       TIP3     OH2      OT      -0.834000       15.9994           0
     65687 WT7      29       TIP3     H1       HT       0.417000        1.0080           0
     65688 WT7      29       TIP3     H2       HT       0.417000        1.0080           0
     65689 WT7      34       TIP3     OH2      OT      -0.834000       15.9994           0
     65690 WT7      34       TIP3     H1       HT       0.417000        1.0080           0
     65691 WT7      34       TIP3     H2       HT       0.417000        1.0080           0
     65692 WT7      37       TIP3     OH2      OT      -0.834000       15.9994           0
     65693 WT7      37       TIP3     H1       HT       0.417000        1.0080           0
     65694 WT7      37       TIP3     H2       HT       0.417000        1.0080           0
     65695 WT7      41       TIP3     OH2      OT      -0.834000       15.9994           0
     65696 WT7      41       TIP3     H1       HT       0.417000        1.0080           0
     65697 WT7      41       TIP3     H2       HT       0.417000        1.0080           0
     65698 WT7      42       TIP3     OH2      OT      -0.834000       15.9994           0
     65699 WT7      42       TIP3     H1       HT       0.417000        1.0080           0
     65700 WT7      42       TIP3     H2       HT       0.417000        1.0080           0
     65701 WT7      44       TIP3     OH2      OT      -0.834000       15.9994           0
     65702 WT7      44       TIP3     H1       HT       0.417000        1.0080           0
     65703 WT7      44       TIP3     H2       HT       0.417000        1.0080           0
     65704 WT7      46       TIP3     OH2      OT      -0.834000       15.9994           0
     65705 WT7      46       TIP3     H1       HT       0.417000        1.0080           0
     65706 WT7      46       TIP3     H2       HT       0.417000        1.0080           0
     65707 WT7      47       TIP3     OH2      OT      -0.834000       15.9994           0
     65708 WT7      47       TIP3     H1       HT       0.417000        1.0080           0
     65709 WT7      47       TIP3     H2       HT       0.417000        1.0080           0
     65710 WT7      48       TIP3     OH2      OT      -0.834000       15.9994           0
     65711 WT7      48       TIP3     H1       HT       0.417000        1.0080           0
     65712 WT7      48       TIP3     H2       HT       0.417000        1.0080           0
     65713 WT7      52       TIP3     OH2      OT      -0.834000       15.9994           0
     65714 WT7      52       TIP3     H1       HT       0.417000        1.0080           0
     65715 WT7      52       TIP3     H2       HT       0.417000        1.0080           0
     65716 WT7      53       TIP3     OH2      OT      -0.834000       15.9994           0
     65717 WT7      53       TIP3     H1       HT       0.417000        1.0080           0
     65718 WT7      53       TIP3     H2       HT       0.417000        1.0080           0
     65719 WT7      55       TIP3     OH2      OT      -0.834000       15.9994           0
     65720 WT7      55       TIP3     H1       HT       0.417000        1.0080           0
     65721 WT7      55       TIP3     H2       HT       0.417000        1.0080           0
     65722 WT7      56       TIP3     OH2      OT      -0.834000       15.9994           0
     65723 WT7      56       TIP3     H1       HT       0.417000        1.0080           0
     65724 WT7      56       TIP3     H2       HT       0.417000        1.0080           0
     65725 WT7      61       TIP3     OH2      OT      -0.834000       15.9994           0
     65726 WT7      61       TIP3     H1       HT       0.417000        1.0080           0
     65727 WT7      61       TIP3     H2       HT       0.417000        1.0080           0
     65728 WT7      64       TIP3     OH2      OT      -0.834000       15.9994           0
     65729 WT7      64       TIP3     H1       HT       0.417000        1.0080           0
     65730 WT7      64       TIP3     H2       HT       0.417000        1.0080           0
     65731 WT7      67       TIP3     OH2      OT      -0.834000       15.9994           0
     65732 WT7      67       TIP3     H1       HT       0.417000        1.0080           0
     65733 WT7      67       TIP3     H2       HT       0.417000        1.0080           0
     65734 WT7      68       TIP3     OH2      OT      -0.834000       15.9994           0
     65735 WT7      68       TIP3     H1       HT       0.417000        1.0080           0
     65736 WT7      68       TIP3     H2       HT       0.417000        1.0080           0
     65737 WT7      71       TIP3     OH2      OT      -0.834000       15.9994           0
     65738 WT7      71       TIP3     H1       HT       0.417000        1.0080           0
     65739 WT7      71       TIP3     H2       HT       0.417000        1.0080           0
     65740 WT7      76       TIP3     OH2      OT      -0.834000       15.9994           0
     65741 WT7      76       TIP3     H1       HT       0.417000        1.0080           0
     65742 WT7      76       TIP3     H2       HT       0.417000        1.0080           0
     65743 WT7      78       TIP3     OH2      OT      -0.834000       15.9994           0
     65744 WT7      78       TIP3     H1       HT       0.417000        1.0080           0
     65745 WT7      78       TIP3     H2       HT       0.417000        1.0080           0
     65746 WT7      81       TIP3     OH2      OT      -0.834000       15.9994           0
     65747 WT7      81       TIP3     H1       HT       0.417000        1.0080           0
     65748 WT7      81       TIP3     H2       HT       0.417000        1.0080           0
     65749 WT7      87       TIP3     OH2      OT      -0.834000       15.9994           0
     65750 WT7      87       TIP3     H1       HT       0.417000        1.0080           0
     65751 WT7      87       TIP3     H2       HT       0.417000        1.0080           0
     65752 WT7      88       TIP3     OH2      OT      -0.834000       15.9994           0
     65753 WT7      88       TIP3     H1       HT       0.417000        1.0080           0
     65754 WT7      88       TIP3     H2       HT       0.417000        1.0080           0
     65755 WT7      90       TIP3     OH2      OT      -0.834000       15.9994           0
     65756 WT7      90       TIP3     H1       HT       0.417000        1.0080           0
     65757 WT7      90       TIP3     H2       HT       0.417000        1.0080           0
     65758 WT7      94       TIP3     OH2      OT      -0.834000       15.9994           0
     65759 WT7      94       TIP3     H1       HT       0.417000        1.0080           0
     65760 WT7      94       TIP3     H2       HT       0.417000        1.0080           0
     65761 WT7      95       TIP3     OH2      OT      -0.834000       15.9994           0
     65762 WT7      95       TIP3     H1       HT       0.417000        1.0080           0
     65763 WT7      95       TIP3     H2       HT       0.417000        1.0080           0
     65764 WT7      97       TIP3     OH2      OT      -0.834000       15.9994           0
     65765 WT7      97       TIP3     H1       HT       0.417000        1.0080           0
     65766 WT7      97       TIP3     H2       HT       0.417000        1.0080           0
     65767 WT7      98       TIP3     OH2      OT      -0.834000       15.9994           0
     65768 WT7      98       TIP3     H1       HT       0.417000        1.0080           0
     65769 WT7      98       TIP3     H2       HT       0.417000        1.0080           0
     65770 WT7      99       TIP3     OH2      OT      -0.834000       15.9994           0
     65771 WT7      99       TIP3     H1       HT       0.417000        1.0080           0
     65772 WT7      99       TIP3     H2       HT       0.417000        1.0080           0
     65773 WT7      105      TIP3     OH2      OT      -0.834000       15.9994           0
     65774 WT7      105      TIP3     H1       HT       0.417000        1.0080           0
     65775 WT7      105      TIP3     H2       HT       0.417000        1.0080           0
     65776 WT7      108      TIP3     OH2      OT      -0.834000       15.9994           0
     65777 WT7      108      TIP3     H1       HT       0.417000        1.0080           0
     65778 WT7      108      TIP3     H2       HT       0.417000        1.0080           0
     65779 WT7      111      TIP3     OH2      OT      -0.834000       15.9994           0
     65780 WT7      111      TIP3     H1       HT       0.417000        1.0080           0
     65781 WT7      111      TIP3     H2       HT       0.417000        1.0080           0
     65782 WT7      113      TIP3     OH2      OT      -0.834000       15.9994           0
     65783 WT7      113      TIP3     H1       HT       0.417000        1.0080           0
     65784 WT7      113      TIP3     H2       HT       0.417000        1.0080           0
     65785 WT7      115      TIP3     OH2      OT      -0.834000       15.9994           0
     65786 WT7      115      TIP3     H1       HT       0.417000        1.0080           0
     65787 WT7      115      TIP3     H2       HT       0.417000        1.0080           0
     65788 WT7      116      TIP3     OH2      OT      -0.834000       15.9994           0
     65789 WT7      116      TIP3     H1       HT       0.417000        1.0080           0
     65790 WT7      116      TIP3     H2       HT       0.417000        1.0080           0
     65791 WT7      122      TIP3     OH2      OT      -0.834000       15.9994           0
     65792 WT7      122      TIP3     H1       HT       0.417000        1.0080           0
     65793 WT7      122      TIP3     H2       HT       0.417000        1.0080           0
     65794 WT7      123      TIP3     OH2      OT      -0.834000       15.9994           0
     65795 WT7      123      TIP3     H1       HT       0.417000        1.0080           0
     65796 WT7      123      TIP3     H2       HT       0.417000        1.0080           0
     65797 WT7      124      TIP3     OH2      OT      -0.834000       15.9994           0
     65798 WT7      124      TIP3     H1       HT       0.417000        1.0080           0
     65799 WT7      124      TIP3     H2       HT       0.417000        1.0080           0
     65800 WT7      125      TIP3     OH2      OT      -0.834000       15.9994           0
     65801 WT7      125      TIP3     H1       HT       0.417000        1.0080           0
     65802 WT7      125      TIP3     H2       HT       0.417000        1.0080           0
     65803 WT7      126      TIP3     OH2      OT      -0.834000       15.9994           0
     65804 WT7      126      TIP3     H1       HT       0.417000        1.0080           0
     65805 WT7      126      TIP3     H2       HT       0.417000        1.0080           0
     65806 WT7      127      TIP3     OH2      OT      -0.834000       15.9994           0
     65807 WT7      127      TIP3     H1       HT       0.417000        1.0080           0
     65808 WT7      127      TIP3     H2       HT       0.417000        1.0080           0
     65809 WT7      130      TIP3     OH2      OT      -0.834000       15.9994           0
     65810 WT7      130      TIP3     H1       HT       0.417000        1.0080           0
     65811 WT7      130      TIP3     H2       HT       0.417000        1.0080           0
     65812 WT7      133      TIP3     OH2      OT      -0.834000       15.9994           0
     65813 WT7      133      TIP3     H1       HT       0.417000        1.0080           0
     65814 WT7      133      TIP3     H2       HT       0.417000        1.0080           0
     65815 WT7      134      TIP3     OH2      OT      -0.834000       15.9994           0
     65816 WT7      134      TIP3     H1       HT       0.417000        1.0080           0
     65817 WT7      134      TIP3     H2       HT       0.417000        1.0080           0
     65818 WT7      135      TIP3     OH2      OT      -0.834000       15.9994           0
     65819 WT7      135      TIP3     H1       HT       0.417000        1.0080           0
     65820 WT7      135      TIP3     H2       HT       0.417000        1.0080           0
     65821 WT7      137      TIP3     OH2      OT      -0.834000       15.9994           0
     65822 WT7      137      TIP3     H1       HT       0.417000        1.0080           0
     65823 WT7      137      TIP3     H2       HT       0.417000        1.0080           0
     65824 WT7      141      TIP3     OH2      OT      -0.834000       15.9994           0
     65825 WT7      141      TIP3     H1       HT       0.417000        1.0080           0
     65826 WT7      141      TIP3     H2       HT       0.417000        1.0080           0
     65827 WT7      147      TIP3     OH2      OT      -0.834000       15.9994           0
     65828 WT7      147      TIP3     H1       HT       0.417000        1.0080           0
     65829 WT7      147      TIP3     H2       HT       0.417000        1.0080           0
     65830 WT7      148      TIP3     OH2      OT      -0.834000       15.9994           0
     65831 WT7      148      TIP3     H1       HT       0.417000        1.0080           0
     65832 WT7      148      TIP3     H2       HT       0.417000        1.0080           0
     65833 WT7      150      TIP3     OH2      OT      -0.834000       15.9994           0
     65834 WT7      150      TIP3     H1       HT       0.417000        1.0080           0
     65835 WT7      150      TIP3     H2       HT       0.417000        1.0080           0
     65836 WT7      152      TIP3     OH2      OT      -0.834000       15.9994           0
     65837 WT7      152      TIP3     H1       HT       0.417000        1.0080           0
     65838 WT7      152      TIP3     H2       HT       0.417000        1.0080           0
     65839 WT7      153      TIP3     OH2      OT      -0.834000       15.9994           0
     65840 WT7      153      TIP3     H1       HT       0.417000        1.0080           0
     65841 WT7      153      TIP3     H2       HT       0.417000        1.0080           0
     65842 WT7      155      TIP3     OH2      OT      -0.834000       15.9994           0
     65843 WT7      155      TIP3     H1       HT       0.417000        1.0080           0
     65844 WT7      155      TIP3     H2       HT       0.417000        1.0080           0
     65845 WT7      162      TIP3     OH2      OT      -0.834000       15.9994           0
     65846 WT7      162      TIP3     H1       HT       0.417000        1.0080           0
     65847 WT7      162      TIP3     H2       HT       0.417000        1.0080           0
     65848 WT7      165      TIP3     OH2      OT      -0.834000       15.9994           0
     65849 WT7      165      TIP3     H1       HT       0.417000        1.0080           0
     65850 WT7      165      TIP3     H2       HT       0.417000        1.0080           0
     65851 WT7      167      TIP3     OH2      OT      -0.834000       15.9994           0
     65852 WT7      167      TIP3     H1       HT       0.417000        1.0080           0
     65853 WT7      167      TIP3     H2       HT       0.417000        1.0080           0
     65854 WT7      175      TIP3     OH2      OT      -0.834000       15.9994           0
     65855 WT7      175      TIP3     H1       HT       0.417000        1.0080           0
     65856 WT7      175      TIP3     H2       HT       0.417000        1.0080           0
     65857 WT7      177      TIP3     OH2      OT      -0.834000       15.9994           0
     65858 WT7      177      TIP3     H1       HT       0.417000        1.0080           0
     65859 WT7      177      TIP3     H2       HT       0.417000        1.0080           0
     65860 WT7      197      TIP3     OH2      OT      -0.834000       15.9994           0
     65861 WT7      197      TIP3     H1       HT       0.417000        1.0080           0
     65862 WT7      197      TIP3     H2       HT       0.417000        1.0080           0
     65863 WT7      200      TIP3     OH2      OT      -0.834000       15.9994           0
     65864 WT7      200      TIP3     H1       HT       0.417000        1.0080           0
     65865 WT7      200      TIP3     H2       HT       0.417000        1.0080           0
     65866 WT7      225      TIP3     OH2      OT      -0.834000       15.9994           0
     65867 WT7      225      TIP3     H1       HT       0.417000        1.0080           0
     65868 WT7      225      TIP3     H2       HT       0.417000        1.0080           0
     65869 WT7      232      TIP3     OH2      OT      -0.834000       15.9994           0
     65870 WT7      232      TIP3     H1       HT       0.417000        1.0080           0
     65871 WT7      232      TIP3     H2       HT       0.417000        1.0080           0
     65872 WT7      239      TIP3     OH2      OT      -0.834000       15.9994           0
     65873 WT7      239      TIP3     H1       HT       0.417000        1.0080           0
     65874 WT7      239      TIP3     H2       HT       0.417000        1.0080           0
     65875 WT7      365      TIP3     OH2      OT      -0.834000       15.9994           0
     65876 WT7      365      TIP3     H1       HT       0.417000        1.0080           0
     65877 WT7      365      TIP3     H2       HT       0.417000        1.0080           0
     65878 WT7      379      TIP3     OH2      OT      -0.834000       15.9994           0
     65879 WT7      379      TIP3     H1       HT       0.417000        1.0080           0
     65880 WT7      379      TIP3     H2       HT       0.417000        1.0080           0
     65881 WT7      400      TIP3     OH2      OT      -0.834000       15.9994           0
     65882 WT7      400      TIP3     H1       HT       0.417000        1.0080           0
     65883 WT7      400      TIP3     H2       HT       0.417000        1.0080           0
     65884 WT7      411      TIP3     OH2      OT      -0.834000       15.9994           0
     65885 WT7      411      TIP3     H1       HT       0.417000        1.0080           0
     65886 WT7      411      TIP3     H2       HT       0.417000        1.0080           0
     65887 WT7      417      TIP3     OH2      OT      -0.834000       15.9994           0
     65888 WT7      417      TIP3     H1       HT       0.417000        1.0080           0
     65889 WT7      417      TIP3     H2       HT       0.417000        1.0080           0
     65890 WT7      424      TIP3     OH2      OT      -0.834000       15.9994           0
     65891 WT7      424      TIP3     H1       HT       0.417000        1.0080           0
     65892 WT7      424      TIP3     H2       HT       0.417000        1.0080           0
     65893 WT7      432      TIP3     OH2      OT      -0.834000       15.9994           0
     65894 WT7      432      TIP3     H1       HT       0.417000        1.0080           0
     65895 WT7      432      TIP3     H2       HT       0.417000        1.0080           0
     65896 WT7      443      TIP3     OH2      OT      -0.834000       15.9994           0
     65897 WT7      443      TIP3     H1       HT       0.417000        1.0080           0
     65898 WT7      443      TIP3     H2       HT       0.417000        1.0080           0
     65899 WT7      449      TIP3     OH2      OT      -0.834000       15.9994           0
     65900 WT7      449      TIP3     H1       HT       0.417000        1.0080           0
     65901 WT7      449      TIP3     H2       HT       0.417000        1.0080           0
     65902 WT7      450      TIP3     OH2      OT      -0.834000       15.9994           0
     65903 WT7      450      TIP3     H1       HT       0.417000        1.0080           0
     65904 WT7      450      TIP3     H2       HT       0.417000        1.0080           0
     65905 WT7      452      TIP3     OH2      OT      -0.834000       15.9994           0
     65906 WT7      452      TIP3     H1       HT       0.417000        1.0080           0
     65907 WT7      452      TIP3     H2       HT       0.417000        1.0080           0
     65908 WT7      457      TIP3     OH2      OT      -0.834000       15.9994           0
     65909 WT7      457      TIP3     H1       HT       0.417000        1.0080           0
     65910 WT7      457      TIP3     H2       HT       0.417000        1.0080           0
     65911 WT7      461      TIP3     OH2      OT      -0.834000       15.9994           0
     65912 WT7      461      TIP3     H1       HT       0.417000        1.0080           0
     65913 WT7      461      TIP3     H2       HT       0.417000        1.0080           0
     65914 WT7      462      TIP3     OH2      OT      -0.834000       15.9994           0
     65915 WT7      462      TIP3     H1       HT       0.417000        1.0080           0
     65916 WT7      462      TIP3     H2       HT       0.417000        1.0080           0
     65917 WT7      463      TIP3     OH2      OT      -0.834000       15.9994           0
     65918 WT7      463      TIP3     H1       HT       0.417000        1.0080           0
     65919 WT7      463      TIP3     H2       HT       0.417000        1.0080           0
     65920 WT7      465      TIP3     OH2      OT      -0.834000       15.9994           0
     65921 WT7      465      TIP3     H1       HT       0.417000        1.0080           0
     65922 WT7      465      TIP3     H2       HT       0.417000        1.0080           0
     65923 WT7      466      TIP3     OH2      OT      -0.834000       15.9994           0
     65924 WT7      466      TIP3     H1       HT       0.417000        1.0080           0
     65925 WT7      466      TIP3     H2       HT       0.417000        1.0080           0
     65926 WT7      469      TIP3     OH2      OT      -0.834000       15.9994           0
     65927 WT7      469      TIP3     H1       HT       0.417000        1.0080           0
     65928 WT7      469      TIP3     H2       HT       0.417000        1.0080           0
     65929 WT7      479      TIP3     OH2      OT      -0.834000       15.9994           0
     65930 WT7      479      TIP3     H1       HT       0.417000        1.0080           0
     65931 WT7      479      TIP3     H2       HT       0.417000        1.0080           0
     65932 WT7      484      TIP3     OH2      OT      -0.834000       15.9994           0
     65933 WT7      484      TIP3     H1       HT       0.417000        1.0080           0
     65934 WT7      484      TIP3     H2       HT       0.417000        1.0080           0
     65935 WT7      485      TIP3     OH2      OT      -0.834000       15.9994           0
     65936 WT7      485      TIP3     H1       HT       0.417000        1.0080           0
     65937 WT7      485      TIP3     H2       HT       0.417000        1.0080           0
     65938 WT7      486      TIP3     OH2      OT      -0.834000       15.9994           0
     65939 WT7      486      TIP3     H1       HT       0.417000        1.0080           0
     65940 WT7      486      TIP3     H2       HT       0.417000        1.0080           0
     65941 WT7      487      TIP3     OH2      OT      -0.834000       15.9994           0
     65942 WT7      487      TIP3     H1       HT       0.417000        1.0080           0
     65943 WT7      487      TIP3     H2       HT       0.417000        1.0080           0
     65944 WT7      489      TIP3     OH2      OT      -0.834000       15.9994           0
     65945 WT7      489      TIP3     H1       HT       0.417000        1.0080           0
     65946 WT7      489      TIP3     H2       HT       0.417000        1.0080           0
     65947 WT7      490      TIP3     OH2      OT      -0.834000       15.9994           0
     65948 WT7      490      TIP3     H1       HT       0.417000        1.0080           0
     65949 WT7      490      TIP3     H2       HT       0.417000        1.0080           0
     65950 WT7      491      TIP3     OH2      OT      -0.834000       15.9994           0
     65951 WT7      491      TIP3     H1       HT       0.417000        1.0080           0
     65952 WT7      491      TIP3     H2       HT       0.417000        1.0080           0
     65953 WT7      493      TIP3     OH2      OT      -0.834000       15.9994           0
     65954 WT7      493      TIP3     H1       HT       0.417000        1.0080           0
     65955 WT7      493      TIP3     H2       HT       0.417000        1.0080           0
     65956 WT7      494      TIP3     OH2      OT      -0.834000       15.9994           0
     65957 WT7      494      TIP3     H1       HT       0.417000        1.0080           0
     65958 WT7      494      TIP3     H2       HT       0.417000        1.0080           0
     65959 WT7      495      TIP3     OH2      OT      -0.834000       15.9994           0
     65960 WT7      495      TIP3     H1       HT       0.417000        1.0080           0
     65961 WT7      495      TIP3     H2       HT       0.417000        1.0080           0
     65962 WT7      497      TIP3     OH2      OT      -0.834000       15.9994           0
     65963 WT7      497      TIP3     H1       HT       0.417000        1.0080           0
     65964 WT7      497      TIP3     H2       HT       0.417000        1.0080           0
     65965 WT7      498      TIP3     OH2      OT      -0.834000       15.9994           0
     65966 WT7      498      TIP3     H1       HT       0.417000        1.0080           0
     65967 WT7      498      TIP3     H2       HT       0.417000        1.0080           0
     65968 WT7      500      TIP3     OH2      OT      -0.834000       15.9994           0
     65969 WT7      500      TIP3     H1       HT       0.417000        1.0080           0
     65970 WT7      500      TIP3     H2       HT       0.417000        1.0080           0
     65971 WT7      501      TIP3     OH2      OT      -0.834000       15.9994           0
     65972 WT7      501      TIP3     H1       HT       0.417000        1.0080           0
     65973 WT7      501      TIP3     H2       HT       0.417000        1.0080           0
     65974 WT7      502      TIP3     OH2      OT      -0.834000       15.9994           0
     65975 WT7      502      TIP3     H1       HT       0.417000        1.0080           0
     65976 WT7      502      TIP3     H2       HT       0.417000        1.0080           0
     65977 WT7      503      TIP3     OH2      OT      -0.834000       15.9994           0
     65978 WT7      503      TIP3     H1       HT       0.417000        1.0080           0
     65979 WT7      503      TIP3     H2       HT       0.417000        1.0080           0
     65980 WT7      506      TIP3     OH2      OT      -0.834000       15.9994           0
     65981 WT7      506      TIP3     H1       HT       0.417000        1.0080           0
     65982 WT7      506      TIP3     H2       HT       0.417000        1.0080           0
     65983 WT7      507      TIP3     OH2      OT      -0.834000       15.9994           0
     65984 WT7      507      TIP3     H1       HT       0.417000        1.0080           0
     65985 WT7      507      TIP3     H2       HT       0.417000        1.0080           0
     65986 WT7      509      TIP3     OH2      OT      -0.834000       15.9994           0
     65987 WT7      509      TIP3     H1       HT       0.417000        1.0080           0
     65988 WT7      509      TIP3     H2       HT       0.417000        1.0080           0
     65989 WT7      511      TIP3     OH2      OT      -0.834000       15.9994           0
     65990 WT7      511      TIP3     H1       HT       0.417000        1.0080           0
     65991 WT7      511      TIP3     H2       HT       0.417000        1.0080           0
     65992 WT7      512      TIP3     OH2      OT      -0.834000       15.9994           0
     65993 WT7      512      TIP3     H1       HT       0.417000        1.0080           0
     65994 WT7      512      TIP3     H2       HT       0.417000        1.0080           0
     65995 WT7      514      TIP3     OH2      OT      -0.834000       15.9994           0
     65996 WT7      514      TIP3     H1       HT       0.417000        1.0080           0
     65997 WT7      514      TIP3     H2       HT       0.417000        1.0080           0
     65998 WT7      515      TIP3     OH2      OT      -0.834000       15.9994           0
     65999 WT7      515      TIP3     H1       HT       0.417000        1.0080           0
     66000 WT7      515      TIP3     H2       HT       0.417000        1.0080           0
     66001 WT7      516      TIP3     OH2      OT      -0.834000       15.9994           0
     66002 WT7      516      TIP3     H1       HT       0.417000        1.0080           0
     66003 WT7      516      TIP3     H2       HT       0.417000        1.0080           0
     66004 WT7      517      TIP3     OH2      OT      -0.834000       15.9994           0
     66005 WT7      517      TIP3     H1       HT       0.417000        1.0080           0
     66006 WT7      517      TIP3     H2       HT       0.417000        1.0080           0
     66007 WT7      518      TIP3     OH2      OT      -0.834000       15.9994           0
     66008 WT7      518      TIP3     H1       HT       0.417000        1.0080           0
     66009 WT7      518      TIP3     H2       HT       0.417000        1.0080           0
     66010 WT7      520      TIP3     OH2      OT      -0.834000       15.9994           0
     66011 WT7      520      TIP3     H1       HT       0.417000        1.0080           0
     66012 WT7      520      TIP3     H2       HT       0.417000        1.0080           0
     66013 WT7      522      TIP3     OH2      OT      -0.834000       15.9994           0
     66014 WT7      522      TIP3     H1       HT       0.417000        1.0080           0
     66015 WT7      522      TIP3     H2       HT       0.417000        1.0080           0
     66016 WT7      523      TIP3     OH2      OT      -0.834000       15.9994           0
     66017 WT7      523      TIP3     H1       HT       0.417000        1.0080           0
     66018 WT7      523      TIP3     H2       HT       0.417000        1.0080           0
     66019 WT7      524      TIP3     OH2      OT      -0.834000       15.9994           0
     66020 WT7      524      TIP3     H1       HT       0.417000        1.0080           0
     66021 WT7      524      TIP3     H2       HT       0.417000        1.0080           0
     66022 WT7      525      TIP3     OH2      OT      -0.834000       15.9994           0
     66023 WT7      525      TIP3     H1       HT       0.417000        1.0080           0
     66024 WT7      525      TIP3     H2       HT       0.417000        1.0080           0
     66025 WT7      526      TIP3     OH2      OT      -0.834000       15.9994           0
     66026 WT7      526      TIP3     H1       HT       0.417000        1.0080           0
     66027 WT7      526      TIP3     H2       HT       0.417000        1.0080           0
     66028 WT7      527      TIP3     OH2      OT      -0.834000       15.9994           0
     66029 WT7      527      TIP3     H1       HT       0.417000        1.0080           0
     66030 WT7      527      TIP3     H2       HT       0.417000        1.0080           0
     66031 WT7      533      TIP3     OH2      OT      -0.834000       15.9994           0
     66032 WT7      533      TIP3     H1       HT       0.417000        1.0080           0
     66033 WT7      533      TIP3     H2       HT       0.417000        1.0080           0
     66034 WT7      534      TIP3     OH2      OT      -0.834000       15.9994           0
     66035 WT7      534      TIP3     H1       HT       0.417000        1.0080           0
     66036 WT7      534      TIP3     H2       HT       0.417000        1.0080           0
     66037 WT7      535      TIP3     OH2      OT      -0.834000       15.9994           0
     66038 WT7      535      TIP3     H1       HT       0.417000        1.0080           0
     66039 WT7      535      TIP3     H2       HT       0.417000        1.0080           0
     66040 WT7      538      TIP3     OH2      OT      -0.834000       15.9994           0
     66041 WT7      538      TIP3     H1       HT       0.417000        1.0080           0
     66042 WT7      538      TIP3     H2       HT       0.417000        1.0080           0
     66043 WT7      539      TIP3     OH2      OT      -0.834000       15.9994           0
     66044 WT7      539      TIP3     H1       HT       0.417000        1.0080           0
     66045 WT7      539      TIP3     H2       HT       0.417000        1.0080           0
     66046 WT7      540      TIP3     OH2      OT      -0.834000       15.9994           0
     66047 WT7      540      TIP3     H1       HT       0.417000        1.0080           0
     66048 WT7      540      TIP3     H2       HT       0.417000        1.0080           0
     66049 WT7      541      TIP3     OH2      OT      -0.834000       15.9994           0
     66050 WT7      541      TIP3     H1       HT       0.417000        1.0080           0
     66051 WT7      541      TIP3     H2       HT       0.417000        1.0080           0
     66052 WT7      543      TIP3     OH2      OT      -0.834000       15.9994           0
     66053 WT7      543      TIP3     H1       HT       0.417000        1.0080           0
     66054 WT7      543      TIP3     H2       HT       0.417000        1.0080           0
     66055 WT7      544      TIP3     OH2      OT      -0.834000       15.9994           0
     66056 WT7      544      TIP3     H1       HT       0.417000        1.0080           0
     66057 WT7      544      TIP3     H2       HT       0.417000        1.0080           0
     66058 WT7      550      TIP3     OH2      OT      -0.834000       15.9994           0
     66059 WT7      550      TIP3     H1       HT       0.417000        1.0080           0
     66060 WT7      550      TIP3     H2       HT       0.417000        1.0080           0
     66061 WT7      552      TIP3     OH2      OT      -0.834000       15.9994           0
     66062 WT7      552      TIP3     H1       HT       0.417000        1.0080           0
     66063 WT7      552      TIP3     H2       HT       0.417000        1.0080           0
     66064 WT7      553      TIP3     OH2      OT      -0.834000       15.9994           0
     66065 WT7      553      TIP3     H1       HT       0.417000        1.0080           0
     66066 WT7      553      TIP3     H2       HT       0.417000        1.0080           0
     66067 WT7      554      TIP3     OH2      OT      -0.834000       15.9994           0
     66068 WT7      554      TIP3     H1       HT       0.417000        1.0080           0
     66069 WT7      554      TIP3     H2       HT       0.417000        1.0080           0
     66070 WT7      555      TIP3     OH2      OT      -0.834000       15.9994           0
     66071 WT7      555      TIP3     H1       HT       0.417000        1.0080           0
     66072 WT7      555      TIP3     H2       HT       0.417000        1.0080           0
     66073 WT7      558      TIP3     OH2      OT      -0.834000       15.9994           0
     66074 WT7      558      TIP3     H1       HT       0.417000        1.0080           0
     66075 WT7      558      TIP3     H2       HT       0.417000        1.0080           0
     66076 WT7      562      TIP3     OH2      OT      -0.834000       15.9994           0
     66077 WT7      562      TIP3     H1       HT       0.417000        1.0080           0
     66078 WT7      562      TIP3     H2       HT       0.417000        1.0080           0
     66079 WT7      568      TIP3     OH2      OT      -0.834000       15.9994           0
     66080 WT7      568      TIP3     H1       HT       0.417000        1.0080           0
     66081 WT7      568      TIP3     H2       HT       0.417000        1.0080           0
     66082 WT7      571      TIP3     OH2      OT      -0.834000       15.9994           0
     66083 WT7      571      TIP3     H1       HT       0.417000        1.0080           0
     66084 WT7      571      TIP3     H2       HT       0.417000        1.0080           0
     66085 WT7      575      TIP3     OH2      OT      -0.834000       15.9994           0
     66086 WT7      575      TIP3     H1       HT       0.417000        1.0080           0
     66087 WT7      575      TIP3     H2       HT       0.417000        1.0080           0
     66088 WT7      579      TIP3     OH2      OT      -0.834000       15.9994           0
     66089 WT7      579      TIP3     H1       HT       0.417000        1.0080           0
     66090 WT7      579      TIP3     H2       HT       0.417000        1.0080           0
     66091 WT7      580      TIP3     OH2      OT      -0.834000       15.9994           0
     66092 WT7      580      TIP3     H1       HT       0.417000        1.0080           0
     66093 WT7      580      TIP3     H2       HT       0.417000        1.0080           0
     66094 WT7      581      TIP3     OH2      OT      -0.834000       15.9994           0
     66095 WT7      581      TIP3     H1       HT       0.417000        1.0080           0
     66096 WT7      581      TIP3     H2       HT       0.417000        1.0080           0
     66097 WT7      584      TIP3     OH2      OT      -0.834000       15.9994           0
     66098 WT7      584      TIP3     H1       HT       0.417000        1.0080           0
     66099 WT7      584      TIP3     H2       HT       0.417000        1.0080           0
     66100 WT7      585      TIP3     OH2      OT      -0.834000       15.9994           0
     66101 WT7      585      TIP3     H1       HT       0.417000        1.0080           0
     66102 WT7      585      TIP3     H2       HT       0.417000        1.0080           0
     66103 WT7      586      TIP3     OH2      OT      -0.834000       15.9994           0
     66104 WT7      586      TIP3     H1       HT       0.417000        1.0080           0
     66105 WT7      586      TIP3     H2       HT       0.417000        1.0080           0
     66106 WT7      587      TIP3     OH2      OT      -0.834000       15.9994           0
     66107 WT7      587      TIP3     H1       HT       0.417000        1.0080           0
     66108 WT7      587      TIP3     H2       HT       0.417000        1.0080           0
     66109 WT7      594      TIP3     OH2      OT      -0.834000       15.9994           0
     66110 WT7      594      TIP3     H1       HT       0.417000        1.0080           0
     66111 WT7      594      TIP3     H2       HT       0.417000        1.0080           0
     66112 WT7      595      TIP3     OH2      OT      -0.834000       15.9994           0
     66113 WT7      595      TIP3     H1       HT       0.417000        1.0080           0
     66114 WT7      595      TIP3     H2       HT       0.417000        1.0080           0
     66115 WT7      599      TIP3     OH2      OT      -0.834000       15.9994           0
     66116 WT7      599      TIP3     H1       HT       0.417000        1.0080           0
     66117 WT7      599      TIP3     H2       HT       0.417000        1.0080           0
     66118 WT7      601      TIP3     OH2      OT      -0.834000       15.9994           0
     66119 WT7      601      TIP3     H1       HT       0.417000        1.0080           0
     66120 WT7      601      TIP3     H2       HT       0.417000        1.0080           0
     66121 WT7      602      TIP3     OH2      OT      -0.834000       15.9994           0
     66122 WT7      602      TIP3     H1       HT       0.417000        1.0080           0
     66123 WT7      602      TIP3     H2       HT       0.417000        1.0080           0
     66124 WT7      603      TIP3     OH2      OT      -0.834000       15.9994           0
     66125 WT7      603      TIP3     H1       HT       0.417000        1.0080           0
     66126 WT7      603      TIP3     H2       HT       0.417000        1.0080           0
     66127 WT7      604      TIP3     OH2      OT      -0.834000       15.9994           0
     66128 WT7      604      TIP3     H1       HT       0.417000        1.0080           0
     66129 WT7      604      TIP3     H2       HT       0.417000        1.0080           0
     66130 WT7      606      TIP3     OH2      OT      -0.834000       15.9994           0
     66131 WT7      606      TIP3     H1       HT       0.417000        1.0080           0
     66132 WT7      606      TIP3     H2       HT       0.417000        1.0080           0
     66133 WT7      609      TIP3     OH2      OT      -0.834000       15.9994           0
     66134 WT7      609      TIP3     H1       HT       0.417000        1.0080           0
     66135 WT7      609      TIP3     H2       HT       0.417000        1.0080           0
     66136 WT7      612      TIP3     OH2      OT      -0.834000       15.9994           0
     66137 WT7      612      TIP3     H1       HT       0.417000        1.0080           0
     66138 WT7      612      TIP3     H2       HT       0.417000        1.0080           0
     66139 WT7      613      TIP3     OH2      OT      -0.834000       15.9994           0
     66140 WT7      613      TIP3     H1       HT       0.417000        1.0080           0
     66141 WT7      613      TIP3     H2       HT       0.417000        1.0080           0
     66142 WT7      618      TIP3     OH2      OT      -0.834000       15.9994           0
     66143 WT7      618      TIP3     H1       HT       0.417000        1.0080           0
     66144 WT7      618      TIP3     H2       HT       0.417000        1.0080           0
     66145 WT7      623      TIP3     OH2      OT      -0.834000       15.9994           0
     66146 WT7      623      TIP3     H1       HT       0.417000        1.0080           0
     66147 WT7      623      TIP3     H2       HT       0.417000        1.0080           0
     66148 WT7      626      TIP3     OH2      OT      -0.834000       15.9994           0
     66149 WT7      626      TIP3     H1       HT       0.417000        1.0080           0
     66150 WT7      626      TIP3     H2       HT       0.417000        1.0080           0
     66151 WT7      632      TIP3     OH2      OT      -0.834000       15.9994           0
     66152 WT7      632      TIP3     H1       HT       0.417000        1.0080           0
     66153 WT7      632      TIP3     H2       HT       0.417000        1.0080           0
     66154 WT7      634      TIP3     OH2      OT      -0.834000       15.9994           0
     66155 WT7      634      TIP3     H1       HT       0.417000        1.0080           0
     66156 WT7      634      TIP3     H2       HT       0.417000        1.0080           0
     66157 WT7      640      TIP3     OH2      OT      -0.834000       15.9994           0
     66158 WT7      640      TIP3     H1       HT       0.417000        1.0080           0
     66159 WT7      640      TIP3     H2       HT       0.417000        1.0080           0
     66160 WT7      644      TIP3     OH2      OT      -0.834000       15.9994           0
     66161 WT7      644      TIP3     H1       HT       0.417000        1.0080           0
     66162 WT7      644      TIP3     H2       HT       0.417000        1.0080           0
     66163 WT7      650      TIP3     OH2      OT      -0.834000       15.9994           0
     66164 WT7      650      TIP3     H1       HT       0.417000        1.0080           0
     66165 WT7      650      TIP3     H2       HT       0.417000        1.0080           0
     66166 WT7      659      TIP3     OH2      OT      -0.834000       15.9994           0
     66167 WT7      659      TIP3     H1       HT       0.417000        1.0080           0
     66168 WT7      659      TIP3     H2       HT       0.417000        1.0080           0
     66169 WT7      662      TIP3     OH2      OT      -0.834000       15.9994           0
     66170 WT7      662      TIP3     H1       HT       0.417000        1.0080           0
     66171 WT7      662      TIP3     H2       HT       0.417000        1.0080           0
     66172 WT7      821      TIP3     OH2      OT      -0.834000       15.9994           0
     66173 WT7      821      TIP3     H1       HT       0.417000        1.0080           0
     66174 WT7      821      TIP3     H2       HT       0.417000        1.0080           0
     66175 WT7      822      TIP3     OH2      OT      -0.834000       15.9994           0
     66176 WT7      822      TIP3     H1       HT       0.417000        1.0080           0
     66177 WT7      822      TIP3     H2       HT       0.417000        1.0080           0
     66178 WT7      835      TIP3     OH2      OT      -0.834000       15.9994           0
     66179 WT7      835      TIP3     H1       HT       0.417000        1.0080           0
     66180 WT7      835      TIP3     H2       HT       0.417000        1.0080           0
     66181 WT7      836      TIP3     OH2      OT      -0.834000       15.9994           0
     66182 WT7      836      TIP3     H1       HT       0.417000        1.0080           0
     66183 WT7      836      TIP3     H2       HT       0.417000        1.0080           0
     66184 WT7      849      TIP3     OH2      OT      -0.834000       15.9994           0
     66185 WT7      849      TIP3     H1       HT       0.417000        1.0080           0
     66186 WT7      849      TIP3     H2       HT       0.417000        1.0080           0
     66187 WT7      852      TIP3     OH2      OT      -0.834000       15.9994           0
     66188 WT7      852      TIP3     H1       HT       0.417000        1.0080           0
     66189 WT7      852      TIP3     H2       HT       0.417000        1.0080           0
     66190 WT7      854      TIP3     OH2      OT      -0.834000       15.9994           0
     66191 WT7      854      TIP3     H1       HT       0.417000        1.0080           0
     66192 WT7      854      TIP3     H2       HT       0.417000        1.0080           0
     66193 WT7      855      TIP3     OH2      OT      -0.834000       15.9994           0
     66194 WT7      855      TIP3     H1       HT       0.417000        1.0080           0
     66195 WT7      855      TIP3     H2       HT       0.417000        1.0080           0
     66196 WT7      860      TIP3     OH2      OT      -0.834000       15.9994           0
     66197 WT7      860      TIP3     H1       HT       0.417000        1.0080           0
     66198 WT7      860      TIP3     H2       HT       0.417000        1.0080           0
     66199 WT7      867      TIP3     OH2      OT      -0.834000       15.9994           0
     66200 WT7      867      TIP3     H1       HT       0.417000        1.0080           0
     66201 WT7      867      TIP3     H2       HT       0.417000        1.0080           0
     66202 WT7      886      TIP3     OH2      OT      -0.834000       15.9994           0
     66203 WT7      886      TIP3     H1       HT       0.417000        1.0080           0
     66204 WT7      886      TIP3     H2       HT       0.417000        1.0080           0
     66205 WT7      889      TIP3     OH2      OT      -0.834000       15.9994           0
     66206 WT7      889      TIP3     H1       HT       0.417000        1.0080           0
     66207 WT7      889      TIP3     H2       HT       0.417000        1.0080           0
     66208 WT7      891      TIP3     OH2      OT      -0.834000       15.9994           0
     66209 WT7      891      TIP3     H1       HT       0.417000        1.0080           0
     66210 WT7      891      TIP3     H2       HT       0.417000        1.0080           0
     66211 WT7      892      TIP3     OH2      OT      -0.834000       15.9994           0
     66212 WT7      892      TIP3     H1       HT       0.417000        1.0080           0
     66213 WT7      892      TIP3     H2       HT       0.417000        1.0080           0
     66214 WT7      894      TIP3     OH2      OT      -0.834000       15.9994           0
     66215 WT7      894      TIP3     H1       HT       0.417000        1.0080           0
     66216 WT7      894      TIP3     H2       HT       0.417000        1.0080           0
     66217 WT7      895      TIP3     OH2      OT      -0.834000       15.9994           0
     66218 WT7      895      TIP3     H1       HT       0.417000        1.0080           0
     66219 WT7      895      TIP3     H2       HT       0.417000        1.0080           0
     66220 WT7      896      TIP3     OH2      OT      -0.834000       15.9994           0
     66221 WT7      896      TIP3     H1       HT       0.417000        1.0080           0
     66222 WT7      896      TIP3     H2       HT       0.417000        1.0080           0
     66223 WT7      897      TIP3     OH2      OT      -0.834000       15.9994           0
     66224 WT7      897      TIP3     H1       HT       0.417000        1.0080           0
     66225 WT7      897      TIP3     H2       HT       0.417000        1.0080           0
     66226 WT7      899      TIP3     OH2      OT      -0.834000       15.9994           0
     66227 WT7      899      TIP3     H1       HT       0.417000        1.0080           0
     66228 WT7      899      TIP3     H2       HT       0.417000        1.0080           0
     66229 WT7      903      TIP3     OH2      OT      -0.834000       15.9994           0
     66230 WT7      903      TIP3     H1       HT       0.417000        1.0080           0
     66231 WT7      903      TIP3     H2       HT       0.417000        1.0080           0
     66232 WT7      906      TIP3     OH2      OT      -0.834000       15.9994           0
     66233 WT7      906      TIP3     H1       HT       0.417000        1.0080           0
     66234 WT7      906      TIP3     H2       HT       0.417000        1.0080           0
     66235 WT7      907      TIP3     OH2      OT      -0.834000       15.9994           0
     66236 WT7      907      TIP3     H1       HT       0.417000        1.0080           0
     66237 WT7      907      TIP3     H2       HT       0.417000        1.0080           0
     66238 WT7      908      TIP3     OH2      OT      -0.834000       15.9994           0
     66239 WT7      908      TIP3     H1       HT       0.417000        1.0080           0
     66240 WT7      908      TIP3     H2       HT       0.417000        1.0080           0
     66241 WT7      911      TIP3     OH2      OT      -0.834000       15.9994           0
     66242 WT7      911      TIP3     H1       HT       0.417000        1.0080           0
     66243 WT7      911      TIP3     H2       HT       0.417000        1.0080           0
     66244 WT7      912      TIP3     OH2      OT      -0.834000       15.9994           0
     66245 WT7      912      TIP3     H1       HT       0.417000        1.0080           0
     66246 WT7      912      TIP3     H2       HT       0.417000        1.0080           0
     66247 WT7      916      TIP3     OH2      OT      -0.834000       15.9994           0
     66248 WT7      916      TIP3     H1       HT       0.417000        1.0080           0
     66249 WT7      916      TIP3     H2       HT       0.417000        1.0080           0
     66250 WT7      917      TIP3     OH2      OT      -0.834000       15.9994           0
     66251 WT7      917      TIP3     H1       HT       0.417000        1.0080           0
     66252 WT7      917      TIP3     H2       HT       0.417000        1.0080           0
     66253 WT7      919      TIP3     OH2      OT      -0.834000       15.9994           0
     66254 WT7      919      TIP3     H1       HT       0.417000        1.0080           0
     66255 WT7      919      TIP3     H2       HT       0.417000        1.0080           0
     66256 WT7      921      TIP3     OH2      OT      -0.834000       15.9994           0
     66257 WT7      921      TIP3     H1       HT       0.417000        1.0080           0
     66258 WT7      921      TIP3     H2       HT       0.417000        1.0080           0
     66259 WT7      924      TIP3     OH2      OT      -0.834000       15.9994           0
     66260 WT7      924      TIP3     H1       HT       0.417000        1.0080           0
     66261 WT7      924      TIP3     H2       HT       0.417000        1.0080           0
     66262 WT7      927      TIP3     OH2      OT      -0.834000       15.9994           0
     66263 WT7      927      TIP3     H1       HT       0.417000        1.0080           0
     66264 WT7      927      TIP3     H2       HT       0.417000        1.0080           0
     66265 WT7      928      TIP3     OH2      OT      -0.834000       15.9994           0
     66266 WT7      928      TIP3     H1       HT       0.417000        1.0080           0
     66267 WT7      928      TIP3     H2       HT       0.417000        1.0080           0
     66268 WT7      929      TIP3     OH2      OT      -0.834000       15.9994           0
     66269 WT7      929      TIP3     H1       HT       0.417000        1.0080           0
     66270 WT7      929      TIP3     H2       HT       0.417000        1.0080           0
     66271 WT7      930      TIP3     OH2      OT      -0.834000       15.9994           0
     66272 WT7      930      TIP3     H1       HT       0.417000        1.0080           0
     66273 WT7      930      TIP3     H2       HT       0.417000        1.0080           0
     66274 WT7      932      TIP3     OH2      OT      -0.834000       15.9994           0
     66275 WT7      932      TIP3     H1       HT       0.417000        1.0080           0
     66276 WT7      932      TIP3     H2       HT       0.417000        1.0080           0
     66277 WT7      933      TIP3     OH2      OT      -0.834000       15.9994           0
     66278 WT7      933      TIP3     H1       HT       0.417000        1.0080           0
     66279 WT7      933      TIP3     H2       HT       0.417000        1.0080           0
     66280 WT7      936      TIP3     OH2      OT      -0.834000       15.9994           0
     66281 WT7      936      TIP3     H1       HT       0.417000        1.0080           0
     66282 WT7      936      TIP3     H2       HT       0.417000        1.0080           0
     66283 WT7      937      TIP3     OH2      OT      -0.834000       15.9994           0
     66284 WT7      937      TIP3     H1       HT       0.417000        1.0080           0
     66285 WT7      937      TIP3     H2       HT       0.417000        1.0080           0
     66286 WT7      940      TIP3     OH2      OT      -0.834000       15.9994           0
     66287 WT7      940      TIP3     H1       HT       0.417000        1.0080           0
     66288 WT7      940      TIP3     H2       HT       0.417000        1.0080           0
     66289 WT7      941      TIP3     OH2      OT      -0.834000       15.9994           0
     66290 WT7      941      TIP3     H1       HT       0.417000        1.0080           0
     66291 WT7      941      TIP3     H2       HT       0.417000        1.0080           0
     66292 WT7      942      TIP3     OH2      OT      -0.834000       15.9994           0
     66293 WT7      942      TIP3     H1       HT       0.417000        1.0080           0
     66294 WT7      942      TIP3     H2       HT       0.417000        1.0080           0
     66295 WT7      944      TIP3     OH2      OT      -0.834000       15.9994           0
     66296 WT7      944      TIP3     H1       HT       0.417000        1.0080           0
     66297 WT7      944      TIP3     H2       HT       0.417000        1.0080           0
     66298 WT7      946      TIP3     OH2      OT      -0.834000       15.9994           0
     66299 WT7      946      TIP3     H1       HT       0.417000        1.0080           0
     66300 WT7      946      TIP3     H2       HT       0.417000        1.0080           0
     66301 WT7      947      TIP3     OH2      OT      -0.834000       15.9994           0
     66302 WT7      947      TIP3     H1       HT       0.417000        1.0080           0
     66303 WT7      947      TIP3     H2       HT       0.417000        1.0080           0
     66304 WT7      948      TIP3     OH2      OT      -0.834000       15.9994           0
     66305 WT7      948      TIP3     H1       HT       0.417000        1.0080           0
     66306 WT7      948      TIP3     H2       HT       0.417000        1.0080           0
     66307 WT7      949      TIP3     OH2      OT      -0.834000       15.9994           0
     66308 WT7      949      TIP3     H1       HT       0.417000        1.0080           0
     66309 WT7      949      TIP3     H2       HT       0.417000        1.0080           0
     66310 WT7      950      TIP3     OH2      OT      -0.834000       15.9994           0
     66311 WT7      950      TIP3     H1       HT       0.417000        1.0080           0
     66312 WT7      950      TIP3     H2       HT       0.417000        1.0080           0
     66313 WT7      951      TIP3     OH2      OT      -0.834000       15.9994           0
     66314 WT7      951      TIP3     H1       HT       0.417000        1.0080           0
     66315 WT7      951      TIP3     H2       HT       0.417000        1.0080           0
     66316 WT7      952      TIP3     OH2      OT      -0.834000       15.9994           0
     66317 WT7      952      TIP3     H1       HT       0.417000        1.0080           0
     66318 WT7      952      TIP3     H2       HT       0.417000        1.0080           0
     66319 WT7      953      TIP3     OH2      OT      -0.834000       15.9994           0
     66320 WT7      953      TIP3     H1       HT       0.417000        1.0080           0
     66321 WT7      953      TIP3     H2       HT       0.417000        1.0080           0
     66322 WT7      954      TIP3     OH2      OT      -0.834000       15.9994           0
     66323 WT7      954      TIP3     H1       HT       0.417000        1.0080           0
     66324 WT7      954      TIP3     H2       HT       0.417000        1.0080           0
     66325 WT7      957      TIP3     OH2      OT      -0.834000       15.9994           0
     66326 WT7      957      TIP3     H1       HT       0.417000        1.0080           0
     66327 WT7      957      TIP3     H2       HT       0.417000        1.0080           0
     66328 WT7      958      TIP3     OH2      OT      -0.834000       15.9994           0
     66329 WT7      958      TIP3     H1       HT       0.417000        1.0080           0
     66330 WT7      958      TIP3     H2       HT       0.417000        1.0080           0
     66331 WT7      959      TIP3     OH2      OT      -0.834000       15.9994           0
     66332 WT7      959      TIP3     H1       HT       0.417000        1.0080           0
     66333 WT7      959      TIP3     H2       HT       0.417000        1.0080           0
     66334 WT7      960      TIP3     OH2      OT      -0.834000       15.9994           0
     66335 WT7      960      TIP3     H1       HT       0.417000        1.0080           0
     66336 WT7      960      TIP3     H2       HT       0.417000        1.0080           0
     66337 WT7      961      TIP3     OH2      OT      -0.834000       15.9994           0
     66338 WT7      961      TIP3     H1       HT       0.417000        1.0080           0
     66339 WT7      961      TIP3     H2       HT       0.417000        1.0080           0
     66340 WT7      962      TIP3     OH2      OT      -0.834000       15.9994           0
     66341 WT7      962      TIP3     H1       HT       0.417000        1.0080           0
     66342 WT7      962      TIP3     H2       HT       0.417000        1.0080           0
     66343 WT7      963      TIP3     OH2      OT      -0.834000       15.9994           0
     66344 WT7      963      TIP3     H1       HT       0.417000        1.0080           0
     66345 WT7      963      TIP3     H2       HT       0.417000        1.0080           0
     66346 WT7      964      TIP3     OH2      OT      -0.834000       15.9994           0
     66347 WT7      964      TIP3     H1       HT       0.417000        1.0080           0
     66348 WT7      964      TIP3     H2       HT       0.417000        1.0080           0
     66349 WT7      965      TIP3     OH2      OT      -0.834000       15.9994           0
     66350 WT7      965      TIP3     H1       HT       0.417000        1.0080           0
     66351 WT7      965      TIP3     H2       HT       0.417000        1.0080           0
     66352 WT7      972      TIP3     OH2      OT      -0.834000       15.9994           0
     66353 WT7      972      TIP3     H1       HT       0.417000        1.0080           0
     66354 WT7      972      TIP3     H2       HT       0.417000        1.0080           0
     66355 WT7      973      TIP3     OH2      OT      -0.834000       15.9994           0
     66356 WT7      973      TIP3     H1       HT       0.417000        1.0080           0
     66357 WT7      973      TIP3     H2       HT       0.417000        1.0080           0
     66358 WT7      974      TIP3     OH2      OT      -0.834000       15.9994           0
     66359 WT7      974      TIP3     H1       HT       0.417000        1.0080           0
     66360 WT7      974      TIP3     H2       HT       0.417000        1.0080           0
     66361 WT7      975      TIP3     OH2      OT      -0.834000       15.9994           0
     66362 WT7      975      TIP3     H1       HT       0.417000        1.0080           0
     66363 WT7      975      TIP3     H2       HT       0.417000        1.0080           0
     66364 WT7      977      TIP3     OH2      OT      -0.834000       15.9994           0
     66365 WT7      977      TIP3     H1       HT       0.417000        1.0080           0
     66366 WT7      977      TIP3     H2       HT       0.417000        1.0080           0
     66367 WT7      978      TIP3     OH2      OT      -0.834000       15.9994           0
     66368 WT7      978      TIP3     H1       HT       0.417000        1.0080           0
     66369 WT7      978      TIP3     H2       HT       0.417000        1.0080           0
     66370 WT7      980      TIP3     OH2      OT      -0.834000       15.9994           0
     66371 WT7      980      TIP3     H1       HT       0.417000        1.0080           0
     66372 WT7      980      TIP3     H2       HT       0.417000        1.0080           0
     66373 WT7      981      TIP3     OH2      OT      -0.834000       15.9994           0
     66374 WT7      981      TIP3     H1       HT       0.417000        1.0080           0
     66375 WT7      981      TIP3     H2       HT       0.417000        1.0080           0
     66376 WT7      982      TIP3     OH2      OT      -0.834000       15.9994           0
     66377 WT7      982      TIP3     H1       HT       0.417000        1.0080           0
     66378 WT7      982      TIP3     H2       HT       0.417000        1.0080           0
     66379 WT7      983      TIP3     OH2      OT      -0.834000       15.9994           0
     66380 WT7      983      TIP3     H1       HT       0.417000        1.0080           0
     66381 WT7      983      TIP3     H2       HT       0.417000        1.0080           0
     66382 WT7      986      TIP3     OH2      OT      -0.834000       15.9994           0
     66383 WT7      986      TIP3     H1       HT       0.417000        1.0080           0
     66384 WT7      986      TIP3     H2       HT       0.417000        1.0080           0
     66385 WT7      992      TIP3     OH2      OT      -0.834000       15.9994           0
     66386 WT7      992      TIP3     H1       HT       0.417000        1.0080           0
     66387 WT7      992      TIP3     H2       HT       0.417000        1.0080           0
     66388 WT7      993      TIP3     OH2      OT      -0.834000       15.9994           0
     66389 WT7      993      TIP3     H1       HT       0.417000        1.0080           0
     66390 WT7      993      TIP3     H2       HT       0.417000        1.0080           0
     66391 WT7      994      TIP3     OH2      OT      -0.834000       15.9994           0
     66392 WT7      994      TIP3     H1       HT       0.417000        1.0080           0
     66393 WT7      994      TIP3     H2       HT       0.417000        1.0080           0
     66394 WT7      995      TIP3     OH2      OT      -0.834000       15.9994           0
     66395 WT7      995      TIP3     H1       HT       0.417000        1.0080           0
     66396 WT7      995      TIP3     H2       HT       0.417000        1.0080           0
     66397 WT7      996      TIP3     OH2      OT      -0.834000       15.9994           0
     66398 WT7      996      TIP3     H1       HT       0.417000        1.0080           0
     66399 WT7      996      TIP3     H2       HT       0.417000        1.0080           0
     66400 WT7      1002     TIP3     OH2      OT      -0.834000       15.9994           0
     66401 WT7      1002     TIP3     H1       HT       0.417000        1.0080           0
     66402 WT7      1002     TIP3     H2       HT       0.417000        1.0080           0
     66403 WT7      1006     TIP3     OH2      OT      -0.834000       15.9994           0
     66404 WT7      1006     TIP3     H1       HT       0.417000        1.0080           0
     66405 WT7      1006     TIP3     H2       HT       0.417000        1.0080           0
     66406 WT7      1007     TIP3     OH2      OT      -0.834000       15.9994           0
     66407 WT7      1007     TIP3     H1       HT       0.417000        1.0080           0
     66408 WT7      1007     TIP3     H2       HT       0.417000        1.0080           0
     66409 WT7      1008     TIP3     OH2      OT      -0.834000       15.9994           0
     66410 WT7      1008     TIP3     H1       HT       0.417000        1.0080           0
     66411 WT7      1008     TIP3     H2       HT       0.417000        1.0080           0
     66412 WT7      1009     TIP3     OH2      OT      -0.834000       15.9994           0
     66413 WT7      1009     TIP3     H1       HT       0.417000        1.0080           0
     66414 WT7      1009     TIP3     H2       HT       0.417000        1.0080           0
     66415 WT7      1011     TIP3     OH2      OT      -0.834000       15.9994           0
     66416 WT7      1011     TIP3     H1       HT       0.417000        1.0080           0
     66417 WT7      1011     TIP3     H2       HT       0.417000        1.0080           0
     66418 WT7      1012     TIP3     OH2      OT      -0.834000       15.9994           0
     66419 WT7      1012     TIP3     H1       HT       0.417000        1.0080           0
     66420 WT7      1012     TIP3     H2       HT       0.417000        1.0080           0
     66421 WT7      1013     TIP3     OH2      OT      -0.834000       15.9994           0
     66422 WT7      1013     TIP3     H1       HT       0.417000        1.0080           0
     66423 WT7      1013     TIP3     H2       HT       0.417000        1.0080           0
     66424 WT7      1014     TIP3     OH2      OT      -0.834000       15.9994           0
     66425 WT7      1014     TIP3     H1       HT       0.417000        1.0080           0
     66426 WT7      1014     TIP3     H2       HT       0.417000        1.0080           0
     66427 WT7      1015     TIP3     OH2      OT      -0.834000       15.9994           0
     66428 WT7      1015     TIP3     H1       HT       0.417000        1.0080           0
     66429 WT7      1015     TIP3     H2       HT       0.417000        1.0080           0
     66430 WT7      1017     TIP3     OH2      OT      -0.834000       15.9994           0
     66431 WT7      1017     TIP3     H1       HT       0.417000        1.0080           0
     66432 WT7      1017     TIP3     H2       HT       0.417000        1.0080           0
     66433 WT7      1018     TIP3     OH2      OT      -0.834000       15.9994           0
     66434 WT7      1018     TIP3     H1       HT       0.417000        1.0080           0
     66435 WT7      1018     TIP3     H2       HT       0.417000        1.0080           0
     66436 WT7      1020     TIP3     OH2      OT      -0.834000       15.9994           0
     66437 WT7      1020     TIP3     H1       HT       0.417000        1.0080           0
     66438 WT7      1020     TIP3     H2       HT       0.417000        1.0080           0
     66439 WT7      1022     TIP3     OH2      OT      -0.834000       15.9994           0
     66440 WT7      1022     TIP3     H1       HT       0.417000        1.0080           0
     66441 WT7      1022     TIP3     H2       HT       0.417000        1.0080           0
     66442 WT7      1024     TIP3     OH2      OT      -0.834000       15.9994           0
     66443 WT7      1024     TIP3     H1       HT       0.417000        1.0080           0
     66444 WT7      1024     TIP3     H2       HT       0.417000        1.0080           0
     66445 WT7      1026     TIP3     OH2      OT      -0.834000       15.9994           0
     66446 WT7      1026     TIP3     H1       HT       0.417000        1.0080           0
     66447 WT7      1026     TIP3     H2       HT       0.417000        1.0080           0
     66448 WT7      1027     TIP3     OH2      OT      -0.834000       15.9994           0
     66449 WT7      1027     TIP3     H1       HT       0.417000        1.0080           0
     66450 WT7      1027     TIP3     H2       HT       0.417000        1.0080           0
     66451 WT7      1030     TIP3     OH2      OT      -0.834000       15.9994           0
     66452 WT7      1030     TIP3     H1       HT       0.417000        1.0080           0
     66453 WT7      1030     TIP3     H2       HT       0.417000        1.0080           0
     66454 WT7      1032     TIP3     OH2      OT      -0.834000       15.9994           0
     66455 WT7      1032     TIP3     H1       HT       0.417000        1.0080           0
     66456 WT7      1032     TIP3     H2       HT       0.417000        1.0080           0
     66457 WT7      1042     TIP3     OH2      OT      -0.834000       15.9994           0
     66458 WT7      1042     TIP3     H1       HT       0.417000        1.0080           0
     66459 WT7      1042     TIP3     H2       HT       0.417000        1.0080           0
     66460 WT7      1046     TIP3     OH2      OT      -0.834000       15.9994           0
     66461 WT7      1046     TIP3     H1       HT       0.417000        1.0080           0
     66462 WT7      1046     TIP3     H2       HT       0.417000        1.0080           0
     66463 WT7      1047     TIP3     OH2      OT      -0.834000       15.9994           0
     66464 WT7      1047     TIP3     H1       HT       0.417000        1.0080           0
     66465 WT7      1047     TIP3     H2       HT       0.417000        1.0080           0
     66466 WT7      1053     TIP3     OH2      OT      -0.834000       15.9994           0
     66467 WT7      1053     TIP3     H1       HT       0.417000        1.0080           0
     66468 WT7      1053     TIP3     H2       HT       0.417000        1.0080           0
     66469 WT7      1060     TIP3     OH2      OT      -0.834000       15.9994           0
     66470 WT7      1060     TIP3     H1       HT       0.417000        1.0080           0
     66471 WT7      1060     TIP3     H2       HT       0.417000        1.0080           0
     66472 WT7      1061     TIP3     OH2      OT      -0.834000       15.9994           0
     66473 WT7      1061     TIP3     H1       HT       0.417000        1.0080           0
     66474 WT7      1061     TIP3     H2       HT       0.417000        1.0080           0
     66475 WT7      1069     TIP3     OH2      OT      -0.834000       15.9994           0
     66476 WT7      1069     TIP3     H1       HT       0.417000        1.0080           0
     66477 WT7      1069     TIP3     H2       HT       0.417000        1.0080           0
     66478 WT7      1071     TIP3     OH2      OT      -0.834000       15.9994           0
     66479 WT7      1071     TIP3     H1       HT       0.417000        1.0080           0
     66480 WT7      1071     TIP3     H2       HT       0.417000        1.0080           0
     66481 WT7      1082     TIP3     OH2      OT      -0.834000       15.9994           0
     66482 WT7      1082     TIP3     H1       HT       0.417000        1.0080           0
     66483 WT7      1082     TIP3     H2       HT       0.417000        1.0080           0
     66484 WT7      1087     TIP3     OH2      OT      -0.834000       15.9994           0
     66485 WT7      1087     TIP3     H1       HT       0.417000        1.0080           0
     66486 WT7      1087     TIP3     H2       HT       0.417000        1.0080           0
     66487 WT7      1088     TIP3     OH2      OT      -0.834000       15.9994           0
     66488 WT7      1088     TIP3     H1       HT       0.417000        1.0080           0
     66489 WT7      1088     TIP3     H2       HT       0.417000        1.0080           0
     66490 WT7      1100     TIP3     OH2      OT      -0.834000       15.9994           0
     66491 WT7      1100     TIP3     H1       HT       0.417000        1.0080           0
     66492 WT7      1100     TIP3     H2       HT       0.417000        1.0080           0
     66493 WT7      1115     TIP3     OH2      OT      -0.834000       15.9994           0
     66494 WT7      1115     TIP3     H1       HT       0.417000        1.0080           0
     66495 WT7      1115     TIP3     H2       HT       0.417000        1.0080           0
     66496 WT7      1117     TIP3     OH2      OT      -0.834000       15.9994           0
     66497 WT7      1117     TIP3     H1       HT       0.417000        1.0080           0
     66498 WT7      1117     TIP3     H2       HT       0.417000        1.0080           0
     66499 WT7      1129     TIP3     OH2      OT      -0.834000       15.9994           0
     66500 WT7      1129     TIP3     H1       HT       0.417000        1.0080           0
     66501 WT7      1129     TIP3     H2       HT       0.417000        1.0080           0
     66502 WT7      1138     TIP3     OH2      OT      -0.834000       15.9994           0
     66503 WT7      1138     TIP3     H1       HT       0.417000        1.0080           0
     66504 WT7      1138     TIP3     H2       HT       0.417000        1.0080           0
     66505 WT7      1148     TIP3     OH2      OT      -0.834000       15.9994           0
     66506 WT7      1148     TIP3     H1       HT       0.417000        1.0080           0
     66507 WT7      1148     TIP3     H2       HT       0.417000        1.0080           0
     66508 WT7      1164     TIP3     OH2      OT      -0.834000       15.9994           0
     66509 WT7      1164     TIP3     H1       HT       0.417000        1.0080           0
     66510 WT7      1164     TIP3     H2       HT       0.417000        1.0080           0
     66511 WT7      1253     TIP3     OH2      OT      -0.834000       15.9994           0
     66512 WT7      1253     TIP3     H1       HT       0.417000        1.0080           0
     66513 WT7      1253     TIP3     H2       HT       0.417000        1.0080           0
     66514 WT7      1272     TIP3     OH2      OT      -0.834000       15.9994           0
     66515 WT7      1272     TIP3     H1       HT       0.417000        1.0080           0
     66516 WT7      1272     TIP3     H2       HT       0.417000        1.0080           0
     66517 WT7      1274     TIP3     OH2      OT      -0.834000       15.9994           0
     66518 WT7      1274     TIP3     H1       HT       0.417000        1.0080           0
     66519 WT7      1274     TIP3     H2       HT       0.417000        1.0080           0
     66520 WT7      1297     TIP3     OH2      OT      -0.834000       15.9994           0
     66521 WT7      1297     TIP3     H1       HT       0.417000        1.0080           0
     66522 WT7      1297     TIP3     H2       HT       0.417000        1.0080           0
     66523 WT7      1298     TIP3     OH2      OT      -0.834000       15.9994           0
     66524 WT7      1298     TIP3     H1       HT       0.417000        1.0080           0
     66525 WT7      1298     TIP3     H2       HT       0.417000        1.0080           0
     66526 WT7      1301     TIP3     OH2      OT      -0.834000       15.9994           0
     66527 WT7      1301     TIP3     H1       HT       0.417000        1.0080           0
     66528 WT7      1301     TIP3     H2       HT       0.417000        1.0080           0
     66529 WT7      1307     TIP3     OH2      OT      -0.834000       15.9994           0
     66530 WT7      1307     TIP3     H1       HT       0.417000        1.0080           0
     66531 WT7      1307     TIP3     H2       HT       0.417000        1.0080           0
     66532 WT7      1308     TIP3     OH2      OT      -0.834000       15.9994           0
     66533 WT7      1308     TIP3     H1       HT       0.417000        1.0080           0
     66534 WT7      1308     TIP3     H2       HT       0.417000        1.0080           0
     66535 WT7      1310     TIP3     OH2      OT      -0.834000       15.9994           0
     66536 WT7      1310     TIP3     H1       HT       0.417000        1.0080           0
     66537 WT7      1310     TIP3     H2       HT       0.417000        1.0080           0
     66538 WT7      1311     TIP3     OH2      OT      -0.834000       15.9994           0
     66539 WT7      1311     TIP3     H1       HT       0.417000        1.0080           0
     66540 WT7      1311     TIP3     H2       HT       0.417000        1.0080           0
     66541 WT7      1313     TIP3     OH2      OT      -0.834000       15.9994           0
     66542 WT7      1313     TIP3     H1       HT       0.417000        1.0080           0
     66543 WT7      1313     TIP3     H2       HT       0.417000        1.0080           0
     66544 WT7      1317     TIP3     OH2      OT      -0.834000       15.9994           0
     66545 WT7      1317     TIP3     H1       HT       0.417000        1.0080           0
     66546 WT7      1317     TIP3     H2       HT       0.417000        1.0080           0
     66547 WT7      1321     TIP3     OH2      OT      -0.834000       15.9994           0
     66548 WT7      1321     TIP3     H1       HT       0.417000        1.0080           0
     66549 WT7      1321     TIP3     H2       HT       0.417000        1.0080           0
     66550 WT7      1326     TIP3     OH2      OT      -0.834000       15.9994           0
     66551 WT7      1326     TIP3     H1       HT       0.417000        1.0080           0
     66552 WT7      1326     TIP3     H2       HT       0.417000        1.0080           0
     66553 WT7      1327     TIP3     OH2      OT      -0.834000       15.9994           0
     66554 WT7      1327     TIP3     H1       HT       0.417000        1.0080           0
     66555 WT7      1327     TIP3     H2       HT       0.417000        1.0080           0
     66556 WT7      1328     TIP3     OH2      OT      -0.834000       15.9994           0
     66557 WT7      1328     TIP3     H1       HT       0.417000        1.0080           0
     66558 WT7      1328     TIP3     H2       HT       0.417000        1.0080           0
     66559 WT7      1329     TIP3     OH2      OT      -0.834000       15.9994           0
     66560 WT7      1329     TIP3     H1       HT       0.417000        1.0080           0
     66561 WT7      1329     TIP3     H2       HT       0.417000        1.0080           0
     66562 WT7      1330     TIP3     OH2      OT      -0.834000       15.9994           0
     66563 WT7      1330     TIP3     H1       HT       0.417000        1.0080           0
     66564 WT7      1330     TIP3     H2       HT       0.417000        1.0080           0
     66565 WT7      1331     TIP3     OH2      OT      -0.834000       15.9994           0
     66566 WT7      1331     TIP3     H1       HT       0.417000        1.0080           0
     66567 WT7      1331     TIP3     H2       HT       0.417000        1.0080           0
     66568 WT7      1332     TIP3     OH2      OT      -0.834000       15.9994           0
     66569 WT7      1332     TIP3     H1       HT       0.417000        1.0080           0
     66570 WT7      1332     TIP3     H2       HT       0.417000        1.0080           0
     66571 WT7      1333     TIP3     OH2      OT      -0.834000       15.9994           0
     66572 WT7      1333     TIP3     H1       HT       0.417000        1.0080           0
     66573 WT7      1333     TIP3     H2       HT       0.417000        1.0080           0
     66574 WT7      1334     TIP3     OH2      OT      -0.834000       15.9994           0
     66575 WT7      1334     TIP3     H1       HT       0.417000        1.0080           0
     66576 WT7      1334     TIP3     H2       HT       0.417000        1.0080           0
     66577 WT7      1337     TIP3     OH2      OT      -0.834000       15.9994           0
     66578 WT7      1337     TIP3     H1       HT       0.417000        1.0080           0
     66579 WT7      1337     TIP3     H2       HT       0.417000        1.0080           0
     66580 WT7      1340     TIP3     OH2      OT      -0.834000       15.9994           0
     66581 WT7      1340     TIP3     H1       HT       0.417000        1.0080           0
     66582 WT7      1340     TIP3     H2       HT       0.417000        1.0080           0
     66583 WT7      1341     TIP3     OH2      OT      -0.834000       15.9994           0
     66584 WT7      1341     TIP3     H1       HT       0.417000        1.0080           0
     66585 WT7      1341     TIP3     H2       HT       0.417000        1.0080           0
     66586 WT7      1342     TIP3     OH2      OT      -0.834000       15.9994           0
     66587 WT7      1342     TIP3     H1       HT       0.417000        1.0080           0
     66588 WT7      1342     TIP3     H2       HT       0.417000        1.0080           0
     66589 WT7      1343     TIP3     OH2      OT      -0.834000       15.9994           0
     66590 WT7      1343     TIP3     H1       HT       0.417000        1.0080           0
     66591 WT7      1343     TIP3     H2       HT       0.417000        1.0080           0
     66592 WT7      1344     TIP3     OH2      OT      -0.834000       15.9994           0
     66593 WT7      1344     TIP3     H1       HT       0.417000        1.0080           0
     66594 WT7      1344     TIP3     H2       HT       0.417000        1.0080           0
     66595 WT7      1346     TIP3     OH2      OT      -0.834000       15.9994           0
     66596 WT7      1346     TIP3     H1       HT       0.417000        1.0080           0
     66597 WT7      1346     TIP3     H2       HT       0.417000        1.0080           0
     66598 WT7      1347     TIP3     OH2      OT      -0.834000       15.9994           0
     66599 WT7      1347     TIP3     H1       HT       0.417000        1.0080           0
     66600 WT7      1347     TIP3     H2       HT       0.417000        1.0080           0
     66601 WT7      1348     TIP3     OH2      OT      -0.834000       15.9994           0
     66602 WT7      1348     TIP3     H1       HT       0.417000        1.0080           0
     66603 WT7      1348     TIP3     H2       HT       0.417000        1.0080           0
     66604 WT7      1349     TIP3     OH2      OT      -0.834000       15.9994           0
     66605 WT7      1349     TIP3     H1       HT       0.417000        1.0080           0
     66606 WT7      1349     TIP3     H2       HT       0.417000        1.0080           0
     66607 WT7      1352     TIP3     OH2      OT      -0.834000       15.9994           0
     66608 WT7      1352     TIP3     H1       HT       0.417000        1.0080           0
     66609 WT7      1352     TIP3     H2       HT       0.417000        1.0080           0
     66610 WT7      1354     TIP3     OH2      OT      -0.834000       15.9994           0
     66611 WT7      1354     TIP3     H1       HT       0.417000        1.0080           0
     66612 WT7      1354     TIP3     H2       HT       0.417000        1.0080           0
     66613 WT7      1355     TIP3     OH2      OT      -0.834000       15.9994           0
     66614 WT7      1355     TIP3     H1       HT       0.417000        1.0080           0
     66615 WT7      1355     TIP3     H2       HT       0.417000        1.0080           0
     66616 WT7      1356     TIP3     OH2      OT      -0.834000       15.9994           0
     66617 WT7      1356     TIP3     H1       HT       0.417000        1.0080           0
     66618 WT7      1356     TIP3     H2       HT       0.417000        1.0080           0
     66619 WT7      1357     TIP3     OH2      OT      -0.834000       15.9994           0
     66620 WT7      1357     TIP3     H1       HT       0.417000        1.0080           0
     66621 WT7      1357     TIP3     H2       HT       0.417000        1.0080           0
     66622 WT7      1359     TIP3     OH2      OT      -0.834000       15.9994           0
     66623 WT7      1359     TIP3     H1       HT       0.417000        1.0080           0
     66624 WT7      1359     TIP3     H2       HT       0.417000        1.0080           0
     66625 WT7      1362     TIP3     OH2      OT      -0.834000       15.9994           0
     66626 WT7      1362     TIP3     H1       HT       0.417000        1.0080           0
     66627 WT7      1362     TIP3     H2       HT       0.417000        1.0080           0
     66628 WT7      1365     TIP3     OH2      OT      -0.834000       15.9994           0
     66629 WT7      1365     TIP3     H1       HT       0.417000        1.0080           0
     66630 WT7      1365     TIP3     H2       HT       0.417000        1.0080           0
     66631 WT7      1367     TIP3     OH2      OT      -0.834000       15.9994           0
     66632 WT7      1367     TIP3     H1       HT       0.417000        1.0080           0
     66633 WT7      1367     TIP3     H2       HT       0.417000        1.0080           0
     66634 WT7      1368     TIP3     OH2      OT      -0.834000       15.9994           0
     66635 WT7      1368     TIP3     H1       HT       0.417000        1.0080           0
     66636 WT7      1368     TIP3     H2       HT       0.417000        1.0080           0
     66637 WT7      1370     TIP3     OH2      OT      -0.834000       15.9994           0
     66638 WT7      1370     TIP3     H1       HT       0.417000        1.0080           0
     66639 WT7      1370     TIP3     H2       HT       0.417000        1.0080           0
     66640 WT7      1371     TIP3     OH2      OT      -0.834000       15.9994           0
     66641 WT7      1371     TIP3     H1       HT       0.417000        1.0080           0
     66642 WT7      1371     TIP3     H2       HT       0.417000        1.0080           0
     66643 WT7      1372     TIP3     OH2      OT      -0.834000       15.9994           0
     66644 WT7      1372     TIP3     H1       HT       0.417000        1.0080           0
     66645 WT7      1372     TIP3     H2       HT       0.417000        1.0080           0
     66646 WT7      1374     TIP3     OH2      OT      -0.834000       15.9994           0
     66647 WT7      1374     TIP3     H1       HT       0.417000        1.0080           0
     66648 WT7      1374     TIP3     H2       HT       0.417000        1.0080           0
     66649 WT7      1376     TIP3     OH2      OT      -0.834000       15.9994           0
     66650 WT7      1376     TIP3     H1       HT       0.417000        1.0080           0
     66651 WT7      1376     TIP3     H2       HT       0.417000        1.0080           0
     66652 WT7      1378     TIP3     OH2      OT      -0.834000       15.9994           0
     66653 WT7      1378     TIP3     H1       HT       0.417000        1.0080           0
     66654 WT7      1378     TIP3     H2       HT       0.417000        1.0080           0
     66655 WT7      1379     TIP3     OH2      OT      -0.834000       15.9994           0
     66656 WT7      1379     TIP3     H1       HT       0.417000        1.0080           0
     66657 WT7      1379     TIP3     H2       HT       0.417000        1.0080           0
     66658 WT7      1380     TIP3     OH2      OT      -0.834000       15.9994           0
     66659 WT7      1380     TIP3     H1       HT       0.417000        1.0080           0
     66660 WT7      1380     TIP3     H2       HT       0.417000        1.0080           0
     66661 WT7      1381     TIP3     OH2      OT      -0.834000       15.9994           0
     66662 WT7      1381     TIP3     H1       HT       0.417000        1.0080           0
     66663 WT7      1381     TIP3     H2       HT       0.417000        1.0080           0
     66664 WT7      1382     TIP3     OH2      OT      -0.834000       15.9994           0
     66665 WT7      1382     TIP3     H1       HT       0.417000        1.0080           0
     66666 WT7      1382     TIP3     H2       HT       0.417000        1.0080           0
     66667 WT7      1383     TIP3     OH2      OT      -0.834000       15.9994           0
     66668 WT7      1383     TIP3     H1       HT       0.417000        1.0080           0
     66669 WT7      1383     TIP3     H2       HT       0.417000        1.0080           0
     66670 WT7      1384     TIP3     OH2      OT      -0.834000       15.9994           0
     66671 WT7      1384     TIP3     H1       HT       0.417000        1.0080           0
     66672 WT7      1384     TIP3     H2       HT       0.417000        1.0080           0
     66673 WT7      1387     TIP3     OH2      OT      -0.834000       15.9994           0
     66674 WT7      1387     TIP3     H1       HT       0.417000        1.0080           0
     66675 WT7      1387     TIP3     H2       HT       0.417000        1.0080           0
     66676 WT7      1388     TIP3     OH2      OT      -0.834000       15.9994           0
     66677 WT7      1388     TIP3     H1       HT       0.417000        1.0080           0
     66678 WT7      1388     TIP3     H2       HT       0.417000        1.0080           0
     66679 WT7      1389     TIP3     OH2      OT      -0.834000       15.9994           0
     66680 WT7      1389     TIP3     H1       HT       0.417000        1.0080           0
     66681 WT7      1389     TIP3     H2       HT       0.417000        1.0080           0
     66682 WT7      1392     TIP3     OH2      OT      -0.834000       15.9994           0
     66683 WT7      1392     TIP3     H1       HT       0.417000        1.0080           0
     66684 WT7      1392     TIP3     H2       HT       0.417000        1.0080           0
     66685 WT7      1394     TIP3     OH2      OT      -0.834000       15.9994           0
     66686 WT7      1394     TIP3     H1       HT       0.417000        1.0080           0
     66687 WT7      1394     TIP3     H2       HT       0.417000        1.0080           0
     66688 WT7      1395     TIP3     OH2      OT      -0.834000       15.9994           0
     66689 WT7      1395     TIP3     H1       HT       0.417000        1.0080           0
     66690 WT7      1395     TIP3     H2       HT       0.417000        1.0080           0
     66691 WT7      1396     TIP3     OH2      OT      -0.834000       15.9994           0
     66692 WT7      1396     TIP3     H1       HT       0.417000        1.0080           0
     66693 WT7      1396     TIP3     H2       HT       0.417000        1.0080           0
     66694 WT7      1398     TIP3     OH2      OT      -0.834000       15.9994           0
     66695 WT7      1398     TIP3     H1       HT       0.417000        1.0080           0
     66696 WT7      1398     TIP3     H2       HT       0.417000        1.0080           0
     66697 WT7      1399     TIP3     OH2      OT      -0.834000       15.9994           0
     66698 WT7      1399     TIP3     H1       HT       0.417000        1.0080           0
     66699 WT7      1399     TIP3     H2       HT       0.417000        1.0080           0
     66700 WT7      1400     TIP3     OH2      OT      -0.834000       15.9994           0
     66701 WT7      1400     TIP3     H1       HT       0.417000        1.0080           0
     66702 WT7      1400     TIP3     H2       HT       0.417000        1.0080           0
     66703 WT7      1401     TIP3     OH2      OT      -0.834000       15.9994           0
     66704 WT7      1401     TIP3     H1       HT       0.417000        1.0080           0
     66705 WT7      1401     TIP3     H2       HT       0.417000        1.0080           0
     66706 WT7      1402     TIP3     OH2      OT      -0.834000       15.9994           0
     66707 WT7      1402     TIP3     H1       HT       0.417000        1.0080           0
     66708 WT7      1402     TIP3     H2       HT       0.417000        1.0080           0
     66709 WT7      1404     TIP3     OH2      OT      -0.834000       15.9994           0
     66710 WT7      1404     TIP3     H1       HT       0.417000        1.0080           0
     66711 WT7      1404     TIP3     H2       HT       0.417000        1.0080           0
     66712 WT7      1407     TIP3     OH2      OT      -0.834000       15.9994           0
     66713 WT7      1407     TIP3     H1       HT       0.417000        1.0080           0
     66714 WT7      1407     TIP3     H2       HT       0.417000        1.0080           0
     66715 WT7      1409     TIP3     OH2      OT      -0.834000       15.9994           0
     66716 WT7      1409     TIP3     H1       HT       0.417000        1.0080           0
     66717 WT7      1409     TIP3     H2       HT       0.417000        1.0080           0
     66718 WT7      1410     TIP3     OH2      OT      -0.834000       15.9994           0
     66719 WT7      1410     TIP3     H1       HT       0.417000        1.0080           0
     66720 WT7      1410     TIP3     H2       HT       0.417000        1.0080           0
     66721 WT7      1411     TIP3     OH2      OT      -0.834000       15.9994           0
     66722 WT7      1411     TIP3     H1       HT       0.417000        1.0080           0
     66723 WT7      1411     TIP3     H2       HT       0.417000        1.0080           0
     66724 WT7      1412     TIP3     OH2      OT      -0.834000       15.9994           0
     66725 WT7      1412     TIP3     H1       HT       0.417000        1.0080           0
     66726 WT7      1412     TIP3     H2       HT       0.417000        1.0080           0
     66727 WT7      1413     TIP3     OH2      OT      -0.834000       15.9994           0
     66728 WT7      1413     TIP3     H1       HT       0.417000        1.0080           0
     66729 WT7      1413     TIP3     H2       HT       0.417000        1.0080           0
     66730 WT7      1414     TIP3     OH2      OT      -0.834000       15.9994           0
     66731 WT7      1414     TIP3     H1       HT       0.417000        1.0080           0
     66732 WT7      1414     TIP3     H2       HT       0.417000        1.0080           0
     66733 WT7      1415     TIP3     OH2      OT      -0.834000       15.9994           0
     66734 WT7      1415     TIP3     H1       HT       0.417000        1.0080           0
     66735 WT7      1415     TIP3     H2       HT       0.417000        1.0080           0
     66736 WT7      1416     TIP3     OH2      OT      -0.834000       15.9994           0
     66737 WT7      1416     TIP3     H1       HT       0.417000        1.0080           0
     66738 WT7      1416     TIP3     H2       HT       0.417000        1.0080           0
     66739 WT7      1417     TIP3     OH2      OT      -0.834000       15.9994           0
     66740 WT7      1417     TIP3     H1       HT       0.417000        1.0080           0
     66741 WT7      1417     TIP3     H2       HT       0.417000        1.0080           0
     66742 WT7      1418     TIP3     OH2      OT      -0.834000       15.9994           0
     66743 WT7      1418     TIP3     H1       HT       0.417000        1.0080           0
     66744 WT7      1418     TIP3     H2       HT       0.417000        1.0080           0
     66745 WT7      1419     TIP3     OH2      OT      -0.834000       15.9994           0
     66746 WT7      1419     TIP3     H1       HT       0.417000        1.0080           0
     66747 WT7      1419     TIP3     H2       HT       0.417000        1.0080           0
     66748 WT7      1420     TIP3     OH2      OT      -0.834000       15.9994           0
     66749 WT7      1420     TIP3     H1       HT       0.417000        1.0080           0
     66750 WT7      1420     TIP3     H2       HT       0.417000        1.0080           0
     66751 WT7      1421     TIP3     OH2      OT      -0.834000       15.9994           0
     66752 WT7      1421     TIP3     H1       HT       0.417000        1.0080           0
     66753 WT7      1421     TIP3     H2       HT       0.417000        1.0080           0
     66754 WT7      1424     TIP3     OH2      OT      -0.834000       15.9994           0
     66755 WT7      1424     TIP3     H1       HT       0.417000        1.0080           0
     66756 WT7      1424     TIP3     H2       HT       0.417000        1.0080           0
     66757 WT7      1426     TIP3     OH2      OT      -0.834000       15.9994           0
     66758 WT7      1426     TIP3     H1       HT       0.417000        1.0080           0
     66759 WT7      1426     TIP3     H2       HT       0.417000        1.0080           0
     66760 WT7      1428     TIP3     OH2      OT      -0.834000       15.9994           0
     66761 WT7      1428     TIP3     H1       HT       0.417000        1.0080           0
     66762 WT7      1428     TIP3     H2       HT       0.417000        1.0080           0
     66763 WT7      1429     TIP3     OH2      OT      -0.834000       15.9994           0
     66764 WT7      1429     TIP3     H1       HT       0.417000        1.0080           0
     66765 WT7      1429     TIP3     H2       HT       0.417000        1.0080           0
     66766 WT7      1433     TIP3     OH2      OT      -0.834000       15.9994           0
     66767 WT7      1433     TIP3     H1       HT       0.417000        1.0080           0
     66768 WT7      1433     TIP3     H2       HT       0.417000        1.0080           0
     66769 WT7      1435     TIP3     OH2      OT      -0.834000       15.9994           0
     66770 WT7      1435     TIP3     H1       HT       0.417000        1.0080           0
     66771 WT7      1435     TIP3     H2       HT       0.417000        1.0080           0
     66772 WT7      1437     TIP3     OH2      OT      -0.834000       15.9994           0
     66773 WT7      1437     TIP3     H1       HT       0.417000        1.0080           0
     66774 WT7      1437     TIP3     H2       HT       0.417000        1.0080           0
     66775 WT7      1440     TIP3     OH2      OT      -0.834000       15.9994           0
     66776 WT7      1440     TIP3     H1       HT       0.417000        1.0080           0
     66777 WT7      1440     TIP3     H2       HT       0.417000        1.0080           0
     66778 WT7      1442     TIP3     OH2      OT      -0.834000       15.9994           0
     66779 WT7      1442     TIP3     H1       HT       0.417000        1.0080           0
     66780 WT7      1442     TIP3     H2       HT       0.417000        1.0080           0
     66781 WT7      1444     TIP3     OH2      OT      -0.834000       15.9994           0
     66782 WT7      1444     TIP3     H1       HT       0.417000        1.0080           0
     66783 WT7      1444     TIP3     H2       HT       0.417000        1.0080           0
     66784 WT7      1445     TIP3     OH2      OT      -0.834000       15.9994           0
     66785 WT7      1445     TIP3     H1       HT       0.417000        1.0080           0
     66786 WT7      1445     TIP3     H2       HT       0.417000        1.0080           0
     66787 WT7      1448     TIP3     OH2      OT      -0.834000       15.9994           0
     66788 WT7      1448     TIP3     H1       HT       0.417000        1.0080           0
     66789 WT7      1448     TIP3     H2       HT       0.417000        1.0080           0
     66790 WT7      1449     TIP3     OH2      OT      -0.834000       15.9994           0
     66791 WT7      1449     TIP3     H1       HT       0.417000        1.0080           0
     66792 WT7      1449     TIP3     H2       HT       0.417000        1.0080           0
     66793 WT7      1451     TIP3     OH2      OT      -0.834000       15.9994           0
     66794 WT7      1451     TIP3     H1       HT       0.417000        1.0080           0
     66795 WT7      1451     TIP3     H2       HT       0.417000        1.0080           0
     66796 WT7      1454     TIP3     OH2      OT      -0.834000       15.9994           0
     66797 WT7      1454     TIP3     H1       HT       0.417000        1.0080           0
     66798 WT7      1454     TIP3     H2       HT       0.417000        1.0080           0
     66799 WT7      1455     TIP3     OH2      OT      -0.834000       15.9994           0
     66800 WT7      1455     TIP3     H1       HT       0.417000        1.0080           0
     66801 WT7      1455     TIP3     H2       HT       0.417000        1.0080           0
     66802 WT7      1456     TIP3     OH2      OT      -0.834000       15.9994           0
     66803 WT7      1456     TIP3     H1       HT       0.417000        1.0080           0
     66804 WT7      1456     TIP3     H2       HT       0.417000        1.0080           0
     66805 WT7      1457     TIP3     OH2      OT      -0.834000       15.9994           0
     66806 WT7      1457     TIP3     H1       HT       0.417000        1.0080           0
     66807 WT7      1457     TIP3     H2       HT       0.417000        1.0080           0
     66808 WT7      1458     TIP3     OH2      OT      -0.834000       15.9994           0
     66809 WT7      1458     TIP3     H1       HT       0.417000        1.0080           0
     66810 WT7      1458     TIP3     H2       HT       0.417000        1.0080           0
     66811 WT7      1461     TIP3     OH2      OT      -0.834000       15.9994           0
     66812 WT7      1461     TIP3     H1       HT       0.417000        1.0080           0
     66813 WT7      1461     TIP3     H2       HT       0.417000        1.0080           0
     66814 WT7      1462     TIP3     OH2      OT      -0.834000       15.9994           0
     66815 WT7      1462     TIP3     H1       HT       0.417000        1.0080           0
     66816 WT7      1462     TIP3     H2       HT       0.417000        1.0080           0
     66817 WT7      1463     TIP3     OH2      OT      -0.834000       15.9994           0
     66818 WT7      1463     TIP3     H1       HT       0.417000        1.0080           0
     66819 WT7      1463     TIP3     H2       HT       0.417000        1.0080           0
     66820 WT7      1464     TIP3     OH2      OT      -0.834000       15.9994           0
     66821 WT7      1464     TIP3     H1       HT       0.417000        1.0080           0
     66822 WT7      1464     TIP3     H2       HT       0.417000        1.0080           0
     66823 WT7      1467     TIP3     OH2      OT      -0.834000       15.9994           0
     66824 WT7      1467     TIP3     H1       HT       0.417000        1.0080           0
     66825 WT7      1467     TIP3     H2       HT       0.417000        1.0080           0
     66826 WT7      1470     TIP3     OH2      OT      -0.834000       15.9994           0
     66827 WT7      1470     TIP3     H1       HT       0.417000        1.0080           0
     66828 WT7      1470     TIP3     H2       HT       0.417000        1.0080           0
     66829 WT7      1471     TIP3     OH2      OT      -0.834000       15.9994           0
     66830 WT7      1471     TIP3     H1       HT       0.417000        1.0080           0
     66831 WT7      1471     TIP3     H2       HT       0.417000        1.0080           0
     66832 WT7      1474     TIP3     OH2      OT      -0.834000       15.9994           0
     66833 WT7      1474     TIP3     H1       HT       0.417000        1.0080           0
     66834 WT7      1474     TIP3     H2       HT       0.417000        1.0080           0
     66835 WT7      1475     TIP3     OH2      OT      -0.834000       15.9994           0
     66836 WT7      1475     TIP3     H1       HT       0.417000        1.0080           0
     66837 WT7      1475     TIP3     H2       HT       0.417000        1.0080           0
     66838 WT7      1476     TIP3     OH2      OT      -0.834000       15.9994           0
     66839 WT7      1476     TIP3     H1       HT       0.417000        1.0080           0
     66840 WT7      1476     TIP3     H2       HT       0.417000        1.0080           0
     66841 WT7      1484     TIP3     OH2      OT      -0.834000       15.9994           0
     66842 WT7      1484     TIP3     H1       HT       0.417000        1.0080           0
     66843 WT7      1484     TIP3     H2       HT       0.417000        1.0080           0
     66844 WT7      1487     TIP3     OH2      OT      -0.834000       15.9994           0
     66845 WT7      1487     TIP3     H1       HT       0.417000        1.0080           0
     66846 WT7      1487     TIP3     H2       HT       0.417000        1.0080           0
     66847 WT7      1489     TIP3     OH2      OT      -0.834000       15.9994           0
     66848 WT7      1489     TIP3     H1       HT       0.417000        1.0080           0
     66849 WT7      1489     TIP3     H2       HT       0.417000        1.0080           0
     66850 WT7      1494     TIP3     OH2      OT      -0.834000       15.9994           0
     66851 WT7      1494     TIP3     H1       HT       0.417000        1.0080           0
     66852 WT7      1494     TIP3     H2       HT       0.417000        1.0080           0
     66853 WT7      1497     TIP3     OH2      OT      -0.834000       15.9994           0
     66854 WT7      1497     TIP3     H1       HT       0.417000        1.0080           0
     66855 WT7      1497     TIP3     H2       HT       0.417000        1.0080           0
     66856 WT7      1501     TIP3     OH2      OT      -0.834000       15.9994           0
     66857 WT7      1501     TIP3     H1       HT       0.417000        1.0080           0
     66858 WT7      1501     TIP3     H2       HT       0.417000        1.0080           0
     66859 WT7      1509     TIP3     OH2      OT      -0.834000       15.9994           0
     66860 WT7      1509     TIP3     H1       HT       0.417000        1.0080           0
     66861 WT7      1509     TIP3     H2       HT       0.417000        1.0080           0
     66862 WT7      1512     TIP3     OH2      OT      -0.834000       15.9994           0
     66863 WT7      1512     TIP3     H1       HT       0.417000        1.0080           0
     66864 WT7      1512     TIP3     H2       HT       0.417000        1.0080           0
     66865 WT7      1530     TIP3     OH2      OT      -0.834000       15.9994           0
     66866 WT7      1530     TIP3     H1       HT       0.417000        1.0080           0
     66867 WT7      1530     TIP3     H2       HT       0.417000        1.0080           0
     66868 WT7      1532     TIP3     OH2      OT      -0.834000       15.9994           0
     66869 WT7      1532     TIP3     H1       HT       0.417000        1.0080           0
     66870 WT7      1532     TIP3     H2       HT       0.417000        1.0080           0
     66871 WT7      1533     TIP3     OH2      OT      -0.834000       15.9994           0
     66872 WT7      1533     TIP3     H1       HT       0.417000        1.0080           0
     66873 WT7      1533     TIP3     H2       HT       0.417000        1.0080           0
     66874 WT7      1544     TIP3     OH2      OT      -0.834000       15.9994           0
     66875 WT7      1544     TIP3     H1       HT       0.417000        1.0080           0
     66876 WT7      1544     TIP3     H2       HT       0.417000        1.0080           0
     66877 WT7      1550     TIP3     OH2      OT      -0.834000       15.9994           0
     66878 WT7      1550     TIP3     H1       HT       0.417000        1.0080           0
     66879 WT7      1550     TIP3     H2       HT       0.417000        1.0080           0
     66880 WT7      1559     TIP3     OH2      OT      -0.834000       15.9994           0
     66881 WT7      1559     TIP3     H1       HT       0.417000        1.0080           0
     66882 WT7      1559     TIP3     H2       HT       0.417000        1.0080           0
     66883 WT7      1592     TIP3     OH2      OT      -0.834000       15.9994           0
     66884 WT7      1592     TIP3     H1       HT       0.417000        1.0080           0
     66885 WT7      1592     TIP3     H2       HT       0.417000        1.0080           0
     66886 WT7      1611     TIP3     OH2      OT      -0.834000       15.9994           0
     66887 WT7      1611     TIP3     H1       HT       0.417000        1.0080           0
     66888 WT7      1611     TIP3     H2       HT       0.417000        1.0080           0
     66889 WT7      1670     TIP3     OH2      OT      -0.834000       15.9994           0
     66890 WT7      1670     TIP3     H1       HT       0.417000        1.0080           0
     66891 WT7      1670     TIP3     H2       HT       0.417000        1.0080           0
     66892 WT7      1692     TIP3     OH2      OT      -0.834000       15.9994           0
     66893 WT7      1692     TIP3     H1       HT       0.417000        1.0080           0
     66894 WT7      1692     TIP3     H2       HT       0.417000        1.0080           0
     66895 WT7      1707     TIP3     OH2      OT      -0.834000       15.9994           0
     66896 WT7      1707     TIP3     H1       HT       0.417000        1.0080           0
     66897 WT7      1707     TIP3     H2       HT       0.417000        1.0080           0
     66898 WT7      1711     TIP3     OH2      OT      -0.834000       15.9994           0
     66899 WT7      1711     TIP3     H1       HT       0.417000        1.0080           0
     66900 WT7      1711     TIP3     H2       HT       0.417000        1.0080           0
     66901 WT7      1714     TIP3     OH2      OT      -0.834000       15.9994           0
     66902 WT7      1714     TIP3     H1       HT       0.417000        1.0080           0
     66903 WT7      1714     TIP3     H2       HT       0.417000        1.0080           0
     66904 WT7      1715     TIP3     OH2      OT      -0.834000       15.9994           0
     66905 WT7      1715     TIP3     H1       HT       0.417000        1.0080           0
     66906 WT7      1715     TIP3     H2       HT       0.417000        1.0080           0
     66907 WT7      1718     TIP3     OH2      OT      -0.834000       15.9994           0
     66908 WT7      1718     TIP3     H1       HT       0.417000        1.0080           0
     66909 WT7      1718     TIP3     H2       HT       0.417000        1.0080           0
     66910 WT7      1722     TIP3     OH2      OT      -0.834000       15.9994           0
     66911 WT7      1722     TIP3     H1       HT       0.417000        1.0080           0
     66912 WT7      1722     TIP3     H2       HT       0.417000        1.0080           0
     66913 WT7      1723     TIP3     OH2      OT      -0.834000       15.9994           0
     66914 WT7      1723     TIP3     H1       HT       0.417000        1.0080           0
     66915 WT7      1723     TIP3     H2       HT       0.417000        1.0080           0
     66916 WT7      1725     TIP3     OH2      OT      -0.834000       15.9994           0
     66917 WT7      1725     TIP3     H1       HT       0.417000        1.0080           0
     66918 WT7      1725     TIP3     H2       HT       0.417000        1.0080           0
     66919 WT7      1727     TIP3     OH2      OT      -0.834000       15.9994           0
     66920 WT7      1727     TIP3     H1       HT       0.417000        1.0080           0
     66921 WT7      1727     TIP3     H2       HT       0.417000        1.0080           0
     66922 WT7      1729     TIP3     OH2      OT      -0.834000       15.9994           0
     66923 WT7      1729     TIP3     H1       HT       0.417000        1.0080           0
     66924 WT7      1729     TIP3     H2       HT       0.417000        1.0080           0
     66925 WT7      1730     TIP3     OH2      OT      -0.834000       15.9994           0
     66926 WT7      1730     TIP3     H1       HT       0.417000        1.0080           0
     66927 WT7      1730     TIP3     H2       HT       0.417000        1.0080           0
     66928 WT7      1733     TIP3     OH2      OT      -0.834000       15.9994           0
     66929 WT7      1733     TIP3     H1       HT       0.417000        1.0080           0
     66930 WT7      1733     TIP3     H2       HT       0.417000        1.0080           0
     66931 WT7      1735     TIP3     OH2      OT      -0.834000       15.9994           0
     66932 WT7      1735     TIP3     H1       HT       0.417000        1.0080           0
     66933 WT7      1735     TIP3     H2       HT       0.417000        1.0080           0
     66934 WT7      1736     TIP3     OH2      OT      -0.834000       15.9994           0
     66935 WT7      1736     TIP3     H1       HT       0.417000        1.0080           0
     66936 WT7      1736     TIP3     H2       HT       0.417000        1.0080           0
     66937 WT7      1741     TIP3     OH2      OT      -0.834000       15.9994           0
     66938 WT7      1741     TIP3     H1       HT       0.417000        1.0080           0
     66939 WT7      1741     TIP3     H2       HT       0.417000        1.0080           0
     66940 WT7      1744     TIP3     OH2      OT      -0.834000       15.9994           0
     66941 WT7      1744     TIP3     H1       HT       0.417000        1.0080           0
     66942 WT7      1744     TIP3     H2       HT       0.417000        1.0080           0
     66943 WT7      1746     TIP3     OH2      OT      -0.834000       15.9994           0
     66944 WT7      1746     TIP3     H1       HT       0.417000        1.0080           0
     66945 WT7      1746     TIP3     H2       HT       0.417000        1.0080           0
     66946 WT7      1752     TIP3     OH2      OT      -0.834000       15.9994           0
     66947 WT7      1752     TIP3     H1       HT       0.417000        1.0080           0
     66948 WT7      1752     TIP3     H2       HT       0.417000        1.0080           0
     66949 WT7      1755     TIP3     OH2      OT      -0.834000       15.9994           0
     66950 WT7      1755     TIP3     H1       HT       0.417000        1.0080           0
     66951 WT7      1755     TIP3     H2       HT       0.417000        1.0080           0
     66952 WT7      1756     TIP3     OH2      OT      -0.834000       15.9994           0
     66953 WT7      1756     TIP3     H1       HT       0.417000        1.0080           0
     66954 WT7      1756     TIP3     H2       HT       0.417000        1.0080           0
     66955 WT7      1757     TIP3     OH2      OT      -0.834000       15.9994           0
     66956 WT7      1757     TIP3     H1       HT       0.417000        1.0080           0
     66957 WT7      1757     TIP3     H2       HT       0.417000        1.0080           0
     66958 WT7      1764     TIP3     OH2      OT      -0.834000       15.9994           0
     66959 WT7      1764     TIP3     H1       HT       0.417000        1.0080           0
     66960 WT7      1764     TIP3     H2       HT       0.417000        1.0080           0
     66961 WT7      1766     TIP3     OH2      OT      -0.834000       15.9994           0
     66962 WT7      1766     TIP3     H1       HT       0.417000        1.0080           0
     66963 WT7      1766     TIP3     H2       HT       0.417000        1.0080           0
     66964 WT7      1771     TIP3     OH2      OT      -0.834000       15.9994           0
     66965 WT7      1771     TIP3     H1       HT       0.417000        1.0080           0
     66966 WT7      1771     TIP3     H2       HT       0.417000        1.0080           0
     66967 WT7      1772     TIP3     OH2      OT      -0.834000       15.9994           0
     66968 WT7      1772     TIP3     H1       HT       0.417000        1.0080           0
     66969 WT7      1772     TIP3     H2       HT       0.417000        1.0080           0
     66970 WT7      1773     TIP3     OH2      OT      -0.834000       15.9994           0
     66971 WT7      1773     TIP3     H1       HT       0.417000        1.0080           0
     66972 WT7      1773     TIP3     H2       HT       0.417000        1.0080           0
     66973 WT7      1775     TIP3     OH2      OT      -0.834000       15.9994           0
     66974 WT7      1775     TIP3     H1       HT       0.417000        1.0080           0
     66975 WT7      1775     TIP3     H2       HT       0.417000        1.0080           0
     66976 WT7      1776     TIP3     OH2      OT      -0.834000       15.9994           0
     66977 WT7      1776     TIP3     H1       HT       0.417000        1.0080           0
     66978 WT7      1776     TIP3     H2       HT       0.417000        1.0080           0
     66979 WT7      1778     TIP3     OH2      OT      -0.834000       15.9994           0
     66980 WT7      1778     TIP3     H1       HT       0.417000        1.0080           0
     66981 WT7      1778     TIP3     H2       HT       0.417000        1.0080           0
     66982 WT7      1779     TIP3     OH2      OT      -0.834000       15.9994           0
     66983 WT7      1779     TIP3     H1       HT       0.417000        1.0080           0
     66984 WT7      1779     TIP3     H2       HT       0.417000        1.0080           0
     66985 WT7      1782     TIP3     OH2      OT      -0.834000       15.9994           0
     66986 WT7      1782     TIP3     H1       HT       0.417000        1.0080           0
     66987 WT7      1782     TIP3     H2       HT       0.417000        1.0080           0
     66988 WT7      1786     TIP3     OH2      OT      -0.834000       15.9994           0
     66989 WT7      1786     TIP3     H1       HT       0.417000        1.0080           0
     66990 WT7      1786     TIP3     H2       HT       0.417000        1.0080           0
     66991 WT7      1788     TIP3     OH2      OT      -0.834000       15.9994           0
     66992 WT7      1788     TIP3     H1       HT       0.417000        1.0080           0
     66993 WT7      1788     TIP3     H2       HT       0.417000        1.0080           0
     66994 WT7      1789     TIP3     OH2      OT      -0.834000       15.9994           0
     66995 WT7      1789     TIP3     H1       HT       0.417000        1.0080           0
     66996 WT7      1789     TIP3     H2       HT       0.417000        1.0080           0
     66997 WT7      1790     TIP3     OH2      OT      -0.834000       15.9994           0
     66998 WT7      1790     TIP3     H1       HT       0.417000        1.0080           0
     66999 WT7      1790     TIP3     H2       HT       0.417000        1.0080           0
     67000 WT7      1794     TIP3     OH2      OT      -0.834000       15.9994           0
     67001 WT7      1794     TIP3     H1       HT       0.417000        1.0080           0
     67002 WT7      1794     TIP3     H2       HT       0.417000        1.0080           0
     67003 WT7      1795     TIP3     OH2      OT      -0.834000       15.9994           0
     67004 WT7      1795     TIP3     H1       HT       0.417000        1.0080           0
     67005 WT7      1795     TIP3     H2       HT       0.417000        1.0080           0
     67006 WT7      1796     TIP3     OH2      OT      -0.834000       15.9994           0
     67007 WT7      1796     TIP3     H1       HT       0.417000        1.0080           0
     67008 WT7      1796     TIP3     H2       HT       0.417000        1.0080           0
     67009 WT7      1798     TIP3     OH2      OT      -0.834000       15.9994           0
     67010 WT7      1798     TIP3     H1       HT       0.417000        1.0080           0
     67011 WT7      1798     TIP3     H2       HT       0.417000        1.0080           0
     67012 WT7      1800     TIP3     OH2      OT      -0.834000       15.9994           0
     67013 WT7      1800     TIP3     H1       HT       0.417000        1.0080           0
     67014 WT7      1800     TIP3     H2       HT       0.417000        1.0080           0
     67015 WT7      1802     TIP3     OH2      OT      -0.834000       15.9994           0
     67016 WT7      1802     TIP3     H1       HT       0.417000        1.0080           0
     67017 WT7      1802     TIP3     H2       HT       0.417000        1.0080           0
     67018 WT7      1804     TIP3     OH2      OT      -0.834000       15.9994           0
     67019 WT7      1804     TIP3     H1       HT       0.417000        1.0080           0
     67020 WT7      1804     TIP3     H2       HT       0.417000        1.0080           0
     67021 WT7      1805     TIP3     OH2      OT      -0.834000       15.9994           0
     67022 WT7      1805     TIP3     H1       HT       0.417000        1.0080           0
     67023 WT7      1805     TIP3     H2       HT       0.417000        1.0080           0
     67024 WT7      1812     TIP3     OH2      OT      -0.834000       15.9994           0
     67025 WT7      1812     TIP3     H1       HT       0.417000        1.0080           0
     67026 WT7      1812     TIP3     H2       HT       0.417000        1.0080           0
     67027 WT7      1813     TIP3     OH2      OT      -0.834000       15.9994           0
     67028 WT7      1813     TIP3     H1       HT       0.417000        1.0080           0
     67029 WT7      1813     TIP3     H2       HT       0.417000        1.0080           0
     67030 WT7      1814     TIP3     OH2      OT      -0.834000       15.9994           0
     67031 WT7      1814     TIP3     H1       HT       0.417000        1.0080           0
     67032 WT7      1814     TIP3     H2       HT       0.417000        1.0080           0
     67033 WT7      1815     TIP3     OH2      OT      -0.834000       15.9994           0
     67034 WT7      1815     TIP3     H1       HT       0.417000        1.0080           0
     67035 WT7      1815     TIP3     H2       HT       0.417000        1.0080           0
     67036 WT7      1816     TIP3     OH2      OT      -0.834000       15.9994           0
     67037 WT7      1816     TIP3     H1       HT       0.417000        1.0080           0
     67038 WT7      1816     TIP3     H2       HT       0.417000        1.0080           0
     67039 WT7      1817     TIP3     OH2      OT      -0.834000       15.9994           0
     67040 WT7      1817     TIP3     H1       HT       0.417000        1.0080           0
     67041 WT7      1817     TIP3     H2       HT       0.417000        1.0080           0
     67042 WT7      1818     TIP3     OH2      OT      -0.834000       15.9994           0
     67043 WT7      1818     TIP3     H1       HT       0.417000        1.0080           0
     67044 WT7      1818     TIP3     H2       HT       0.417000        1.0080           0
     67045 WT7      1819     TIP3     OH2      OT      -0.834000       15.9994           0
     67046 WT7      1819     TIP3     H1       HT       0.417000        1.0080           0
     67047 WT7      1819     TIP3     H2       HT       0.417000        1.0080           0
     67048 WT7      1820     TIP3     OH2      OT      -0.834000       15.9994           0
     67049 WT7      1820     TIP3     H1       HT       0.417000        1.0080           0
     67050 WT7      1820     TIP3     H2       HT       0.417000        1.0080           0
     67051 WT7      1821     TIP3     OH2      OT      -0.834000       15.9994           0
     67052 WT7      1821     TIP3     H1       HT       0.417000        1.0080           0
     67053 WT7      1821     TIP3     H2       HT       0.417000        1.0080           0
     67054 WT7      1824     TIP3     OH2      OT      -0.834000       15.9994           0
     67055 WT7      1824     TIP3     H1       HT       0.417000        1.0080           0
     67056 WT7      1824     TIP3     H2       HT       0.417000        1.0080           0
     67057 WT7      1828     TIP3     OH2      OT      -0.834000       15.9994           0
     67058 WT7      1828     TIP3     H1       HT       0.417000        1.0080           0
     67059 WT7      1828     TIP3     H2       HT       0.417000        1.0080           0
     67060 WT7      1829     TIP3     OH2      OT      -0.834000       15.9994           0
     67061 WT7      1829     TIP3     H1       HT       0.417000        1.0080           0
     67062 WT7      1829     TIP3     H2       HT       0.417000        1.0080           0
     67063 WT7      1830     TIP3     OH2      OT      -0.834000       15.9994           0
     67064 WT7      1830     TIP3     H1       HT       0.417000        1.0080           0
     67065 WT7      1830     TIP3     H2       HT       0.417000        1.0080           0
     67066 WT7      1831     TIP3     OH2      OT      -0.834000       15.9994           0
     67067 WT7      1831     TIP3     H1       HT       0.417000        1.0080           0
     67068 WT7      1831     TIP3     H2       HT       0.417000        1.0080           0
     67069 WT7      1832     TIP3     OH2      OT      -0.834000       15.9994           0
     67070 WT7      1832     TIP3     H1       HT       0.417000        1.0080           0
     67071 WT7      1832     TIP3     H2       HT       0.417000        1.0080           0
     67072 WT7      1833     TIP3     OH2      OT      -0.834000       15.9994           0
     67073 WT7      1833     TIP3     H1       HT       0.417000        1.0080           0
     67074 WT7      1833     TIP3     H2       HT       0.417000        1.0080           0
     67075 WT7      1836     TIP3     OH2      OT      -0.834000       15.9994           0
     67076 WT7      1836     TIP3     H1       HT       0.417000        1.0080           0
     67077 WT7      1836     TIP3     H2       HT       0.417000        1.0080           0
     67078 WT7      1838     TIP3     OH2      OT      -0.834000       15.9994           0
     67079 WT7      1838     TIP3     H1       HT       0.417000        1.0080           0
     67080 WT7      1838     TIP3     H2       HT       0.417000        1.0080           0
     67081 WT7      1839     TIP3     OH2      OT      -0.834000       15.9994           0
     67082 WT7      1839     TIP3     H1       HT       0.417000        1.0080           0
     67083 WT7      1839     TIP3     H2       HT       0.417000        1.0080           0
     67084 WT7      1841     TIP3     OH2      OT      -0.834000       15.9994           0
     67085 WT7      1841     TIP3     H1       HT       0.417000        1.0080           0
     67086 WT7      1841     TIP3     H2       HT       0.417000        1.0080           0
     67087 WT7      1842     TIP3     OH2      OT      -0.834000       15.9994           0
     67088 WT7      1842     TIP3     H1       HT       0.417000        1.0080           0
     67089 WT7      1842     TIP3     H2       HT       0.417000        1.0080           0
     67090 WT7      1844     TIP3     OH2      OT      -0.834000       15.9994           0
     67091 WT7      1844     TIP3     H1       HT       0.417000        1.0080           0
     67092 WT7      1844     TIP3     H2       HT       0.417000        1.0080           0
     67093 WT7      1845     TIP3     OH2      OT      -0.834000       15.9994           0
     67094 WT7      1845     TIP3     H1       HT       0.417000        1.0080           0
     67095 WT7      1845     TIP3     H2       HT       0.417000        1.0080           0
     67096 WT7      1846     TIP3     OH2      OT      -0.834000       15.9994           0
     67097 WT7      1846     TIP3     H1       HT       0.417000        1.0080           0
     67098 WT7      1846     TIP3     H2       HT       0.417000        1.0080           0
     67099 WT7      1848     TIP3     OH2      OT      -0.834000       15.9994           0
     67100 WT7      1848     TIP3     H1       HT       0.417000        1.0080           0
     67101 WT7      1848     TIP3     H2       HT       0.417000        1.0080           0
     67102 WT7      1849     TIP3     OH2      OT      -0.834000       15.9994           0
     67103 WT7      1849     TIP3     H1       HT       0.417000        1.0080           0
     67104 WT7      1849     TIP3     H2       HT       0.417000        1.0080           0
     67105 WT7      1851     TIP3     OH2      OT      -0.834000       15.9994           0
     67106 WT7      1851     TIP3     H1       HT       0.417000        1.0080           0
     67107 WT7      1851     TIP3     H2       HT       0.417000        1.0080           0
     67108 WT7      1853     TIP3     OH2      OT      -0.834000       15.9994           0
     67109 WT7      1853     TIP3     H1       HT       0.417000        1.0080           0
     67110 WT7      1853     TIP3     H2       HT       0.417000        1.0080           0
     67111 WT7      1854     TIP3     OH2      OT      -0.834000       15.9994           0
     67112 WT7      1854     TIP3     H1       HT       0.417000        1.0080           0
     67113 WT7      1854     TIP3     H2       HT       0.417000        1.0080           0
     67114 WT7      1856     TIP3     OH2      OT      -0.834000       15.9994           0
     67115 WT7      1856     TIP3     H1       HT       0.417000        1.0080           0
     67116 WT7      1856     TIP3     H2       HT       0.417000        1.0080           0
     67117 WT7      1857     TIP3     OH2      OT      -0.834000       15.9994           0
     67118 WT7      1857     TIP3     H1       HT       0.417000        1.0080           0
     67119 WT7      1857     TIP3     H2       HT       0.417000        1.0080           0
     67120 WT7      1858     TIP3     OH2      OT      -0.834000       15.9994           0
     67121 WT7      1858     TIP3     H1       HT       0.417000        1.0080           0
     67122 WT7      1858     TIP3     H2       HT       0.417000        1.0080           0
     67123 WT7      1859     TIP3     OH2      OT      -0.834000       15.9994           0
     67124 WT7      1859     TIP3     H1       HT       0.417000        1.0080           0
     67125 WT7      1859     TIP3     H2       HT       0.417000        1.0080           0
     67126 WT7      1860     TIP3     OH2      OT      -0.834000       15.9994           0
     67127 WT7      1860     TIP3     H1       HT       0.417000        1.0080           0
     67128 WT7      1860     TIP3     H2       HT       0.417000        1.0080           0
     67129 WT7      1861     TIP3     OH2      OT      -0.834000       15.9994           0
     67130 WT7      1861     TIP3     H1       HT       0.417000        1.0080           0
     67131 WT7      1861     TIP3     H2       HT       0.417000        1.0080           0
     67132 WT7      1863     TIP3     OH2      OT      -0.834000       15.9994           0
     67133 WT7      1863     TIP3     H1       HT       0.417000        1.0080           0
     67134 WT7      1863     TIP3     H2       HT       0.417000        1.0080           0
     67135 WT7      1864     TIP3     OH2      OT      -0.834000       15.9994           0
     67136 WT7      1864     TIP3     H1       HT       0.417000        1.0080           0
     67137 WT7      1864     TIP3     H2       HT       0.417000        1.0080           0
     67138 WT7      1866     TIP3     OH2      OT      -0.834000       15.9994           0
     67139 WT7      1866     TIP3     H1       HT       0.417000        1.0080           0
     67140 WT7      1866     TIP3     H2       HT       0.417000        1.0080           0
     67141 WT7      1867     TIP3     OH2      OT      -0.834000       15.9994           0
     67142 WT7      1867     TIP3     H1       HT       0.417000        1.0080           0
     67143 WT7      1867     TIP3     H2       HT       0.417000        1.0080           0
     67144 WT7      1871     TIP3     OH2      OT      -0.834000       15.9994           0
     67145 WT7      1871     TIP3     H1       HT       0.417000        1.0080           0
     67146 WT7      1871     TIP3     H2       HT       0.417000        1.0080           0
     67147 WT7      1873     TIP3     OH2      OT      -0.834000       15.9994           0
     67148 WT7      1873     TIP3     H1       HT       0.417000        1.0080           0
     67149 WT7      1873     TIP3     H2       HT       0.417000        1.0080           0
     67150 WT7      1874     TIP3     OH2      OT      -0.834000       15.9994           0
     67151 WT7      1874     TIP3     H1       HT       0.417000        1.0080           0
     67152 WT7      1874     TIP3     H2       HT       0.417000        1.0080           0
     67153 WT7      1878     TIP3     OH2      OT      -0.834000       15.9994           0
     67154 WT7      1878     TIP3     H1       HT       0.417000        1.0080           0
     67155 WT7      1878     TIP3     H2       HT       0.417000        1.0080           0
     67156 WT7      1879     TIP3     OH2      OT      -0.834000       15.9994           0
     67157 WT7      1879     TIP3     H1       HT       0.417000        1.0080           0
     67158 WT7      1879     TIP3     H2       HT       0.417000        1.0080           0
     67159 WT7      1880     TIP3     OH2      OT      -0.834000       15.9994           0
     67160 WT7      1880     TIP3     H1       HT       0.417000        1.0080           0
     67161 WT7      1880     TIP3     H2       HT       0.417000        1.0080           0
     67162 WT7      1881     TIP3     OH2      OT      -0.834000       15.9994           0
     67163 WT7      1881     TIP3     H1       HT       0.417000        1.0080           0
     67164 WT7      1881     TIP3     H2       HT       0.417000        1.0080           0
     67165 WT7      1882     TIP3     OH2      OT      -0.834000       15.9994           0
     67166 WT7      1882     TIP3     H1       HT       0.417000        1.0080           0
     67167 WT7      1882     TIP3     H2       HT       0.417000        1.0080           0
     67168 WT7      1883     TIP3     OH2      OT      -0.834000       15.9994           0
     67169 WT7      1883     TIP3     H1       HT       0.417000        1.0080           0
     67170 WT7      1883     TIP3     H2       HT       0.417000        1.0080           0
     67171 WT7      1887     TIP3     OH2      OT      -0.834000       15.9994           0
     67172 WT7      1887     TIP3     H1       HT       0.417000        1.0080           0
     67173 WT7      1887     TIP3     H2       HT       0.417000        1.0080           0
     67174 WT7      1888     TIP3     OH2      OT      -0.834000       15.9994           0
     67175 WT7      1888     TIP3     H1       HT       0.417000        1.0080           0
     67176 WT7      1888     TIP3     H2       HT       0.417000        1.0080           0
     67177 WT7      1889     TIP3     OH2      OT      -0.834000       15.9994           0
     67178 WT7      1889     TIP3     H1       HT       0.417000        1.0080           0
     67179 WT7      1889     TIP3     H2       HT       0.417000        1.0080           0
     67180 WT7      1890     TIP3     OH2      OT      -0.834000       15.9994           0
     67181 WT7      1890     TIP3     H1       HT       0.417000        1.0080           0
     67182 WT7      1890     TIP3     H2       HT       0.417000        1.0080           0
     67183 WT7      1893     TIP3     OH2      OT      -0.834000       15.9994           0
     67184 WT7      1893     TIP3     H1       HT       0.417000        1.0080           0
     67185 WT7      1893     TIP3     H2       HT       0.417000        1.0080           0
     67186 WT7      1894     TIP3     OH2      OT      -0.834000       15.9994           0
     67187 WT7      1894     TIP3     H1       HT       0.417000        1.0080           0
     67188 WT7      1894     TIP3     H2       HT       0.417000        1.0080           0
     67189 WT7      1896     TIP3     OH2      OT      -0.834000       15.9994           0
     67190 WT7      1896     TIP3     H1       HT       0.417000        1.0080           0
     67191 WT7      1896     TIP3     H2       HT       0.417000        1.0080           0
     67192 WT7      1897     TIP3     OH2      OT      -0.834000       15.9994           0
     67193 WT7      1897     TIP3     H1       HT       0.417000        1.0080           0
     67194 WT7      1897     TIP3     H2       HT       0.417000        1.0080           0
     67195 WT7      1899     TIP3     OH2      OT      -0.834000       15.9994           0
     67196 WT7      1899     TIP3     H1       HT       0.417000        1.0080           0
     67197 WT7      1899     TIP3     H2       HT       0.417000        1.0080           0
     67198 WT7      1900     TIP3     OH2      OT      -0.834000       15.9994           0
     67199 WT7      1900     TIP3     H1       HT       0.417000        1.0080           0
     67200 WT7      1900     TIP3     H2       HT       0.417000        1.0080           0
     67201 WT7      1901     TIP3     OH2      OT      -0.834000       15.9994           0
     67202 WT7      1901     TIP3     H1       HT       0.417000        1.0080           0
     67203 WT7      1901     TIP3     H2       HT       0.417000        1.0080           0
     67204 WT7      1902     TIP3     OH2      OT      -0.834000       15.9994           0
     67205 WT7      1902     TIP3     H1       HT       0.417000        1.0080           0
     67206 WT7      1902     TIP3     H2       HT       0.417000        1.0080           0
     67207 WT7      1903     TIP3     OH2      OT      -0.834000       15.9994           0
     67208 WT7      1903     TIP3     H1       HT       0.417000        1.0080           0
     67209 WT7      1903     TIP3     H2       HT       0.417000        1.0080           0
     67210 WT7      1904     TIP3     OH2      OT      -0.834000       15.9994           0
     67211 WT7      1904     TIP3     H1       HT       0.417000        1.0080           0
     67212 WT7      1904     TIP3     H2       HT       0.417000        1.0080           0
     67213 WT7      1905     TIP3     OH2      OT      -0.834000       15.9994           0
     67214 WT7      1905     TIP3     H1       HT       0.417000        1.0080           0
     67215 WT7      1905     TIP3     H2       HT       0.417000        1.0080           0
     67216 WT7      1906     TIP3     OH2      OT      -0.834000       15.9994           0
     67217 WT7      1906     TIP3     H1       HT       0.417000        1.0080           0
     67218 WT7      1906     TIP3     H2       HT       0.417000        1.0080           0
     67219 WT7      1907     TIP3     OH2      OT      -0.834000       15.9994           0
     67220 WT7      1907     TIP3     H1       HT       0.417000        1.0080           0
     67221 WT7      1907     TIP3     H2       HT       0.417000        1.0080           0
     67222 WT7      1908     TIP3     OH2      OT      -0.834000       15.9994           0
     67223 WT7      1908     TIP3     H1       HT       0.417000        1.0080           0
     67224 WT7      1908     TIP3     H2       HT       0.417000        1.0080           0
     67225 WT7      1909     TIP3     OH2      OT      -0.834000       15.9994           0
     67226 WT7      1909     TIP3     H1       HT       0.417000        1.0080           0
     67227 WT7      1909     TIP3     H2       HT       0.417000        1.0080           0
     67228 WT7      1911     TIP3     OH2      OT      -0.834000       15.9994           0
     67229 WT7      1911     TIP3     H1       HT       0.417000        1.0080           0
     67230 WT7      1911     TIP3     H2       HT       0.417000        1.0080           0
     67231 WT7      1912     TIP3     OH2      OT      -0.834000       15.9994           0
     67232 WT7      1912     TIP3     H1       HT       0.417000        1.0080           0
     67233 WT7      1912     TIP3     H2       HT       0.417000        1.0080           0
     67234 WT7      1914     TIP3     OH2      OT      -0.834000       15.9994           0
     67235 WT7      1914     TIP3     H1       HT       0.417000        1.0080           0
     67236 WT7      1914     TIP3     H2       HT       0.417000        1.0080           0
     67237 WT7      1915     TIP3     OH2      OT      -0.834000       15.9994           0
     67238 WT7      1915     TIP3     H1       HT       0.417000        1.0080           0
     67239 WT7      1915     TIP3     H2       HT       0.417000        1.0080           0
     67240 WT7      1920     TIP3     OH2      OT      -0.834000       15.9994           0
     67241 WT7      1920     TIP3     H1       HT       0.417000        1.0080           0
     67242 WT7      1920     TIP3     H2       HT       0.417000        1.0080           0
     67243 WT7      1922     TIP3     OH2      OT      -0.834000       15.9994           0
     67244 WT7      1922     TIP3     H1       HT       0.417000        1.0080           0
     67245 WT7      1922     TIP3     H2       HT       0.417000        1.0080           0
     67246 WT7      1925     TIP3     OH2      OT      -0.834000       15.9994           0
     67247 WT7      1925     TIP3     H1       HT       0.417000        1.0080           0
     67248 WT7      1925     TIP3     H2       HT       0.417000        1.0080           0
     67249 WT7      1929     TIP3     OH2      OT      -0.834000       15.9994           0
     67250 WT7      1929     TIP3     H1       HT       0.417000        1.0080           0
     67251 WT7      1929     TIP3     H2       HT       0.417000        1.0080           0
     67252 WT7      1930     TIP3     OH2      OT      -0.834000       15.9994           0
     67253 WT7      1930     TIP3     H1       HT       0.417000        1.0080           0
     67254 WT7      1930     TIP3     H2       HT       0.417000        1.0080           0
     67255 WT7      1932     TIP3     OH2      OT      -0.834000       15.9994           0
     67256 WT7      1932     TIP3     H1       HT       0.417000        1.0080           0
     67257 WT7      1932     TIP3     H2       HT       0.417000        1.0080           0
     67258 WT7      1938     TIP3     OH2      OT      -0.834000       15.9994           0
     67259 WT7      1938     TIP3     H1       HT       0.417000        1.0080           0
     67260 WT7      1938     TIP3     H2       HT       0.417000        1.0080           0
     67261 WT7      1940     TIP3     OH2      OT      -0.834000       15.9994           0
     67262 WT7      1940     TIP3     H1       HT       0.417000        1.0080           0
     67263 WT7      1940     TIP3     H2       HT       0.417000        1.0080           0
     67264 WT7      1941     TIP3     OH2      OT      -0.834000       15.9994           0
     67265 WT7      1941     TIP3     H1       HT       0.417000        1.0080           0
     67266 WT7      1941     TIP3     H2       HT       0.417000        1.0080           0
     67267 WT7      1944     TIP3     OH2      OT      -0.834000       15.9994           0
     67268 WT7      1944     TIP3     H1       HT       0.417000        1.0080           0
     67269 WT7      1944     TIP3     H2       HT       0.417000        1.0080           0
     67270 WT7      1945     TIP3     OH2      OT      -0.834000       15.9994           0
     67271 WT7      1945     TIP3     H1       HT       0.417000        1.0080           0
     67272 WT7      1945     TIP3     H2       HT       0.417000        1.0080           0
     67273 WT7      1947     TIP3     OH2      OT      -0.834000       15.9994           0
     67274 WT7      1947     TIP3     H1       HT       0.417000        1.0080           0
     67275 WT7      1947     TIP3     H2       HT       0.417000        1.0080           0
     67276 WT7      1948     TIP3     OH2      OT      -0.834000       15.9994           0
     67277 WT7      1948     TIP3     H1       HT       0.417000        1.0080           0
     67278 WT7      1948     TIP3     H2       HT       0.417000        1.0080           0
     67279 WT7      1949     TIP3     OH2      OT      -0.834000       15.9994           0
     67280 WT7      1949     TIP3     H1       HT       0.417000        1.0080           0
     67281 WT7      1949     TIP3     H2       HT       0.417000        1.0080           0
     67282 WT7      1952     TIP3     OH2      OT      -0.834000       15.9994           0
     67283 WT7      1952     TIP3     H1       HT       0.417000        1.0080           0
     67284 WT7      1952     TIP3     H2       HT       0.417000        1.0080           0
     67285 WT7      1956     TIP3     OH2      OT      -0.834000       15.9994           0
     67286 WT7      1956     TIP3     H1       HT       0.417000        1.0080           0
     67287 WT7      1956     TIP3     H2       HT       0.417000        1.0080           0
     67288 WT7      1957     TIP3     OH2      OT      -0.834000       15.9994           0
     67289 WT7      1957     TIP3     H1       HT       0.417000        1.0080           0
     67290 WT7      1957     TIP3     H2       HT       0.417000        1.0080           0
     67291 WT7      1958     TIP3     OH2      OT      -0.834000       15.9994           0
     67292 WT7      1958     TIP3     H1       HT       0.417000        1.0080           0
     67293 WT7      1958     TIP3     H2       HT       0.417000        1.0080           0
     67294 WT7      1961     TIP3     OH2      OT      -0.834000       15.9994           0
     67295 WT7      1961     TIP3     H1       HT       0.417000        1.0080           0
     67296 WT7      1961     TIP3     H2       HT       0.417000        1.0080           0
     67297 WT7      1965     TIP3     OH2      OT      -0.834000       15.9994           0
     67298 WT7      1965     TIP3     H1       HT       0.417000        1.0080           0
     67299 WT7      1965     TIP3     H2       HT       0.417000        1.0080           0
     67300 WT7      1966     TIP3     OH2      OT      -0.834000       15.9994           0
     67301 WT7      1966     TIP3     H1       HT       0.417000        1.0080           0
     67302 WT7      1966     TIP3     H2       HT       0.417000        1.0080           0
     67303 WT7      1967     TIP3     OH2      OT      -0.834000       15.9994           0
     67304 WT7      1967     TIP3     H1       HT       0.417000        1.0080           0
     67305 WT7      1967     TIP3     H2       HT       0.417000        1.0080           0
     67306 WT7      1977     TIP3     OH2      OT      -0.834000       15.9994           0
     67307 WT7      1977     TIP3     H1       HT       0.417000        1.0080           0
     67308 WT7      1977     TIP3     H2       HT       0.417000        1.0080           0
     67309 WT7      1987     TIP3     OH2      OT      -0.834000       15.9994           0
     67310 WT7      1987     TIP3     H1       HT       0.417000        1.0080           0
     67311 WT7      1987     TIP3     H2       HT       0.417000        1.0080           0
     67312 WT7      1994     TIP3     OH2      OT      -0.834000       15.9994           0
     67313 WT7      1994     TIP3     H1       HT       0.417000        1.0080           0
     67314 WT7      1994     TIP3     H2       HT       0.417000        1.0080           0
     67315 WT7      2008     TIP3     OH2      OT      -0.834000       15.9994           0
     67316 WT7      2008     TIP3     H1       HT       0.417000        1.0080           0
     67317 WT7      2008     TIP3     H2       HT       0.417000        1.0080           0
     67318 WT7      2009     TIP3     OH2      OT      -0.834000       15.9994           0
     67319 WT7      2009     TIP3     H1       HT       0.417000        1.0080           0
     67320 WT7      2009     TIP3     H2       HT       0.417000        1.0080           0
     67321 WT7      2123     TIP3     OH2      OT      -0.834000       15.9994           0
     67322 WT7      2123     TIP3     H1       HT       0.417000        1.0080           0
     67323 WT7      2123     TIP3     H2       HT       0.417000        1.0080           0
     67324 WT7      2127     TIP3     OH2      OT      -0.834000       15.9994           0
     67325 WT7      2127     TIP3     H1       HT       0.417000        1.0080           0
     67326 WT7      2127     TIP3     H2       HT       0.417000        1.0080           0
     67327 WT7      2133     TIP3     OH2      OT      -0.834000       15.9994           0
     67328 WT7      2133     TIP3     H1       HT       0.417000        1.0080           0
     67329 WT7      2133     TIP3     H2       HT       0.417000        1.0080           0
     67330 WT7      2145     TIP3     OH2      OT      -0.834000       15.9994           0
     67331 WT7      2145     TIP3     H1       HT       0.417000        1.0080           0
     67332 WT7      2145     TIP3     H2       HT       0.417000        1.0080           0
     67333 WT7      2147     TIP3     OH2      OT      -0.834000       15.9994           0
     67334 WT7      2147     TIP3     H1       HT       0.417000        1.0080           0
     67335 WT7      2147     TIP3     H2       HT       0.417000        1.0080           0
     67336 WT7      2151     TIP3     OH2      OT      -0.834000       15.9994           0
     67337 WT7      2151     TIP3     H1       HT       0.417000        1.0080           0
     67338 WT7      2151     TIP3     H2       HT       0.417000        1.0080           0
     67339 WT7      2163     TIP3     OH2      OT      -0.834000       15.9994           0
     67340 WT7      2163     TIP3     H1       HT       0.417000        1.0080           0
     67341 WT7      2163     TIP3     H2       HT       0.417000        1.0080           0
     67342 WT7      2165     TIP3     OH2      OT      -0.834000       15.9994           0
     67343 WT7      2165     TIP3     H1       HT       0.417000        1.0080           0
     67344 WT7      2165     TIP3     H2       HT       0.417000        1.0080           0
     67345 WT7      2167     TIP3     OH2      OT      -0.834000       15.9994           0
     67346 WT7      2167     TIP3     H1       HT       0.417000        1.0080           0
     67347 WT7      2167     TIP3     H2       HT       0.417000        1.0080           0
     67348 WT7      2172     TIP3     OH2      OT      -0.834000       15.9994           0
     67349 WT7      2172     TIP3     H1       HT       0.417000        1.0080           0
     67350 WT7      2172     TIP3     H2       HT       0.417000        1.0080           0
     67351 WT7      2180     TIP3     OH2      OT      -0.834000       15.9994           0
     67352 WT7      2180     TIP3     H1       HT       0.417000        1.0080           0
     67353 WT7      2180     TIP3     H2       HT       0.417000        1.0080           0
     67354 WT7      2184     TIP3     OH2      OT      -0.834000       15.9994           0
     67355 WT7      2184     TIP3     H1       HT       0.417000        1.0080           0
     67356 WT7      2184     TIP3     H2       HT       0.417000        1.0080           0
     67357 WT7      2185     TIP3     OH2      OT      -0.834000       15.9994           0
     67358 WT7      2185     TIP3     H1       HT       0.417000        1.0080           0
     67359 WT7      2185     TIP3     H2       HT       0.417000        1.0080           0
     67360 WT7      2186     TIP3     OH2      OT      -0.834000       15.9994           0
     67361 WT7      2186     TIP3     H1       HT       0.417000        1.0080           0
     67362 WT7      2186     TIP3     H2       HT       0.417000        1.0080           0
     67363 WT7      2187     TIP3     OH2      OT      -0.834000       15.9994           0
     67364 WT7      2187     TIP3     H1       HT       0.417000        1.0080           0
     67365 WT7      2187     TIP3     H2       HT       0.417000        1.0080           0
     67366 WT7      2197     TIP3     OH2      OT      -0.834000       15.9994           0
     67367 WT7      2197     TIP3     H1       HT       0.417000        1.0080           0
     67368 WT7      2197     TIP3     H2       HT       0.417000        1.0080           0
     67369 WT7      2198     TIP3     OH2      OT      -0.834000       15.9994           0
     67370 WT7      2198     TIP3     H1       HT       0.417000        1.0080           0
     67371 WT7      2198     TIP3     H2       HT       0.417000        1.0080           0
     67372 WT7      2200     TIP3     OH2      OT      -0.834000       15.9994           0
     67373 WT7      2200     TIP3     H1       HT       0.417000        1.0080           0
     67374 WT7      2200     TIP3     H2       HT       0.417000        1.0080           0
     67375 WT7      2201     TIP3     OH2      OT      -0.834000       15.9994           0
     67376 WT7      2201     TIP3     H1       HT       0.417000        1.0080           0
     67377 WT7      2201     TIP3     H2       HT       0.417000        1.0080           0
     67378 WT7      2211     TIP3     OH2      OT      -0.834000       15.9994           0
     67379 WT7      2211     TIP3     H1       HT       0.417000        1.0080           0
     67380 WT7      2211     TIP3     H2       HT       0.417000        1.0080           0
     67381 WT7      2212     TIP3     OH2      OT      -0.834000       15.9994           0
     67382 WT7      2212     TIP3     H1       HT       0.417000        1.0080           0
     67383 WT7      2212     TIP3     H2       HT       0.417000        1.0080           0
     67384 WT7      2217     TIP3     OH2      OT      -0.834000       15.9994           0
     67385 WT7      2217     TIP3     H1       HT       0.417000        1.0080           0
     67386 WT7      2217     TIP3     H2       HT       0.417000        1.0080           0
     67387 WT7      2219     TIP3     OH2      OT      -0.834000       15.9994           0
     67388 WT7      2219     TIP3     H1       HT       0.417000        1.0080           0
     67389 WT7      2219     TIP3     H2       HT       0.417000        1.0080           0
     67390 WT7      2225     TIP3     OH2      OT      -0.834000       15.9994           0
     67391 WT7      2225     TIP3     H1       HT       0.417000        1.0080           0
     67392 WT7      2225     TIP3     H2       HT       0.417000        1.0080           0
     67393 WT7      2227     TIP3     OH2      OT      -0.834000       15.9994           0
     67394 WT7      2227     TIP3     H1       HT       0.417000        1.0080           0
     67395 WT7      2227     TIP3     H2       HT       0.417000        1.0080           0
     67396 WT7      2229     TIP3     OH2      OT      -0.834000       15.9994           0
     67397 WT7      2229     TIP3     H1       HT       0.417000        1.0080           0
     67398 WT7      2229     TIP3     H2       HT       0.417000        1.0080           0
     67399 WT7      2231     TIP3     OH2      OT      -0.834000       15.9994           0
     67400 WT7      2231     TIP3     H1       HT       0.417000        1.0080           0
     67401 WT7      2231     TIP3     H2       HT       0.417000        1.0080           0
     67402 WT7      2232     TIP3     OH2      OT      -0.834000       15.9994           0
     67403 WT7      2232     TIP3     H1       HT       0.417000        1.0080           0
     67404 WT7      2232     TIP3     H2       HT       0.417000        1.0080           0
     67405 WT7      2234     TIP3     OH2      OT      -0.834000       15.9994           0
     67406 WT7      2234     TIP3     H1       HT       0.417000        1.0080           0
     67407 WT7      2234     TIP3     H2       HT       0.417000        1.0080           0
     67408 WT7      2236     TIP3     OH2      OT      -0.834000       15.9994           0
     67409 WT7      2236     TIP3     H1       HT       0.417000        1.0080           0
     67410 WT7      2236     TIP3     H2       HT       0.417000        1.0080           0
     67411 WT7      2238     TIP3     OH2      OT      -0.834000       15.9994           0
     67412 WT7      2238     TIP3     H1       HT       0.417000        1.0080           0
     67413 WT7      2238     TIP3     H2       HT       0.417000        1.0080           0
     67414 WT7      2240     TIP3     OH2      OT      -0.834000       15.9994           0
     67415 WT7      2240     TIP3     H1       HT       0.417000        1.0080           0
     67416 WT7      2240     TIP3     H2       HT       0.417000        1.0080           0
     67417 WT7      2241     TIP3     OH2      OT      -0.834000       15.9994           0
     67418 WT7      2241     TIP3     H1       HT       0.417000        1.0080           0
     67419 WT7      2241     TIP3     H2       HT       0.417000        1.0080           0
     67420 WT7      2242     TIP3     OH2      OT      -0.834000       15.9994           0
     67421 WT7      2242     TIP3     H1       HT       0.417000        1.0080           0
     67422 WT7      2242     TIP3     H2       HT       0.417000        1.0080           0
     67423 WT7      2243     TIP3     OH2      OT      -0.834000       15.9994           0
     67424 WT7      2243     TIP3     H1       HT       0.417000        1.0080           0
     67425 WT7      2243     TIP3     H2       HT       0.417000        1.0080           0
     67426 WT7      2244     TIP3     OH2      OT      -0.834000       15.9994           0
     67427 WT7      2244     TIP3     H1       HT       0.417000        1.0080           0
     67428 WT7      2244     TIP3     H2       HT       0.417000        1.0080           0
     67429 WT7      2247     TIP3     OH2      OT      -0.834000       15.9994           0
     67430 WT7      2247     TIP3     H1       HT       0.417000        1.0080           0
     67431 WT7      2247     TIP3     H2       HT       0.417000        1.0080           0
     67432 WT7      2248     TIP3     OH2      OT      -0.834000       15.9994           0
     67433 WT7      2248     TIP3     H1       HT       0.417000        1.0080           0
     67434 WT7      2248     TIP3     H2       HT       0.417000        1.0080           0
     67435 WT7      2249     TIP3     OH2      OT      -0.834000       15.9994           0
     67436 WT7      2249     TIP3     H1       HT       0.417000        1.0080           0
     67437 WT7      2249     TIP3     H2       HT       0.417000        1.0080           0
     67438 WT7      2250     TIP3     OH2      OT      -0.834000       15.9994           0
     67439 WT7      2250     TIP3     H1       HT       0.417000        1.0080           0
     67440 WT7      2250     TIP3     H2       HT       0.417000        1.0080           0
     67441 WT7      2251     TIP3     OH2      OT      -0.834000       15.9994           0
     67442 WT7      2251     TIP3     H1       HT       0.417000        1.0080           0
     67443 WT7      2251     TIP3     H2       HT       0.417000        1.0080           0
     67444 WT7      2253     TIP3     OH2      OT      -0.834000       15.9994           0
     67445 WT7      2253     TIP3     H1       HT       0.417000        1.0080           0
     67446 WT7      2253     TIP3     H2       HT       0.417000        1.0080           0
     67447 WT7      2254     TIP3     OH2      OT      -0.834000       15.9994           0
     67448 WT7      2254     TIP3     H1       HT       0.417000        1.0080           0
     67449 WT7      2254     TIP3     H2       HT       0.417000        1.0080           0
     67450 WT7      2256     TIP3     OH2      OT      -0.834000       15.9994           0
     67451 WT7      2256     TIP3     H1       HT       0.417000        1.0080           0
     67452 WT7      2256     TIP3     H2       HT       0.417000        1.0080           0
     67453 WT7      2257     TIP3     OH2      OT      -0.834000       15.9994           0
     67454 WT7      2257     TIP3     H1       HT       0.417000        1.0080           0
     67455 WT7      2257     TIP3     H2       HT       0.417000        1.0080           0
     67456 WT7      2258     TIP3     OH2      OT      -0.834000       15.9994           0
     67457 WT7      2258     TIP3     H1       HT       0.417000        1.0080           0
     67458 WT7      2258     TIP3     H2       HT       0.417000        1.0080           0
     67459 WT7      2260     TIP3     OH2      OT      -0.834000       15.9994           0
     67460 WT7      2260     TIP3     H1       HT       0.417000        1.0080           0
     67461 WT7      2260     TIP3     H2       HT       0.417000        1.0080           0
     67462 WT7      2261     TIP3     OH2      OT      -0.834000       15.9994           0
     67463 WT7      2261     TIP3     H1       HT       0.417000        1.0080           0
     67464 WT7      2261     TIP3     H2       HT       0.417000        1.0080           0
     67465 WT7      2263     TIP3     OH2      OT      -0.834000       15.9994           0
     67466 WT7      2263     TIP3     H1       HT       0.417000        1.0080           0
     67467 WT7      2263     TIP3     H2       HT       0.417000        1.0080           0
     67468 WT7      2264     TIP3     OH2      OT      -0.834000       15.9994           0
     67469 WT7      2264     TIP3     H1       HT       0.417000        1.0080           0
     67470 WT7      2264     TIP3     H2       HT       0.417000        1.0080           0
     67471 WT7      2265     TIP3     OH2      OT      -0.834000       15.9994           0
     67472 WT7      2265     TIP3     H1       HT       0.417000        1.0080           0
     67473 WT7      2265     TIP3     H2       HT       0.417000        1.0080           0
     67474 WT7      2268     TIP3     OH2      OT      -0.834000       15.9994           0
     67475 WT7      2268     TIP3     H1       HT       0.417000        1.0080           0
     67476 WT7      2268     TIP3     H2       HT       0.417000        1.0080           0
     67477 WT7      2269     TIP3     OH2      OT      -0.834000       15.9994           0
     67478 WT7      2269     TIP3     H1       HT       0.417000        1.0080           0
     67479 WT7      2269     TIP3     H2       HT       0.417000        1.0080           0
     67480 WT7      2270     TIP3     OH2      OT      -0.834000       15.9994           0
     67481 WT7      2270     TIP3     H1       HT       0.417000        1.0080           0
     67482 WT7      2270     TIP3     H2       HT       0.417000        1.0080           0
     67483 WT7      2271     TIP3     OH2      OT      -0.834000       15.9994           0
     67484 WT7      2271     TIP3     H1       HT       0.417000        1.0080           0
     67485 WT7      2271     TIP3     H2       HT       0.417000        1.0080           0
     67486 WT7      2272     TIP3     OH2      OT      -0.834000       15.9994           0
     67487 WT7      2272     TIP3     H1       HT       0.417000        1.0080           0
     67488 WT7      2272     TIP3     H2       HT       0.417000        1.0080           0
     67489 WT7      2275     TIP3     OH2      OT      -0.834000       15.9994           0
     67490 WT7      2275     TIP3     H1       HT       0.417000        1.0080           0
     67491 WT7      2275     TIP3     H2       HT       0.417000        1.0080           0
     67492 WT7      2277     TIP3     OH2      OT      -0.834000       15.9994           0
     67493 WT7      2277     TIP3     H1       HT       0.417000        1.0080           0
     67494 WT7      2277     TIP3     H2       HT       0.417000        1.0080           0
     67495 WT7      2278     TIP3     OH2      OT      -0.834000       15.9994           0
     67496 WT7      2278     TIP3     H1       HT       0.417000        1.0080           0
     67497 WT7      2278     TIP3     H2       HT       0.417000        1.0080           0
     67498 WT7      2280     TIP3     OH2      OT      -0.834000       15.9994           0
     67499 WT7      2280     TIP3     H1       HT       0.417000        1.0080           0
     67500 WT7      2280     TIP3     H2       HT       0.417000        1.0080           0
     67501 WT7      2281     TIP3     OH2      OT      -0.834000       15.9994           0
     67502 WT7      2281     TIP3     H1       HT       0.417000        1.0080           0
     67503 WT7      2281     TIP3     H2       HT       0.417000        1.0080           0
     67504 WT7      2282     TIP3     OH2      OT      -0.834000       15.9994           0
     67505 WT7      2282     TIP3     H1       HT       0.417000        1.0080           0
     67506 WT7      2282     TIP3     H2       HT       0.417000        1.0080           0
     67507 WT7      2283     TIP3     OH2      OT      -0.834000       15.9994           0
     67508 WT7      2283     TIP3     H1       HT       0.417000        1.0080           0
     67509 WT7      2283     TIP3     H2       HT       0.417000        1.0080           0
     67510 WT7      2284     TIP3     OH2      OT      -0.834000       15.9994           0
     67511 WT7      2284     TIP3     H1       HT       0.417000        1.0080           0
     67512 WT7      2284     TIP3     H2       HT       0.417000        1.0080           0
     67513 WT7      2286     TIP3     OH2      OT      -0.834000       15.9994           0
     67514 WT7      2286     TIP3     H1       HT       0.417000        1.0080           0
     67515 WT7      2286     TIP3     H2       HT       0.417000        1.0080           0
     67516 WT7      2287     TIP3     OH2      OT      -0.834000       15.9994           0
     67517 WT7      2287     TIP3     H1       HT       0.417000        1.0080           0
     67518 WT7      2287     TIP3     H2       HT       0.417000        1.0080           0
     67519 WT7      2288     TIP3     OH2      OT      -0.834000       15.9994           0
     67520 WT7      2288     TIP3     H1       HT       0.417000        1.0080           0
     67521 WT7      2288     TIP3     H2       HT       0.417000        1.0080           0
     67522 WT7      2289     TIP3     OH2      OT      -0.834000       15.9994           0
     67523 WT7      2289     TIP3     H1       HT       0.417000        1.0080           0
     67524 WT7      2289     TIP3     H2       HT       0.417000        1.0080           0
     67525 WT7      2291     TIP3     OH2      OT      -0.834000       15.9994           0
     67526 WT7      2291     TIP3     H1       HT       0.417000        1.0080           0
     67527 WT7      2291     TIP3     H2       HT       0.417000        1.0080           0
     67528 WT7      2292     TIP3     OH2      OT      -0.834000       15.9994           0
     67529 WT7      2292     TIP3     H1       HT       0.417000        1.0080           0
     67530 WT7      2292     TIP3     H2       HT       0.417000        1.0080           0
     67531 WT7      2293     TIP3     OH2      OT      -0.834000       15.9994           0
     67532 WT7      2293     TIP3     H1       HT       0.417000        1.0080           0
     67533 WT7      2293     TIP3     H2       HT       0.417000        1.0080           0
     67534 WT7      2295     TIP3     OH2      OT      -0.834000       15.9994           0
     67535 WT7      2295     TIP3     H1       HT       0.417000        1.0080           0
     67536 WT7      2295     TIP3     H2       HT       0.417000        1.0080           0
     67537 WT7      2297     TIP3     OH2      OT      -0.834000       15.9994           0
     67538 WT7      2297     TIP3     H1       HT       0.417000        1.0080           0
     67539 WT7      2297     TIP3     H2       HT       0.417000        1.0080           0
     67540 WT7      2298     TIP3     OH2      OT      -0.834000       15.9994           0
     67541 WT7      2298     TIP3     H1       HT       0.417000        1.0080           0
     67542 WT7      2298     TIP3     H2       HT       0.417000        1.0080           0
     67543 WT7      2300     TIP3     OH2      OT      -0.834000       15.9994           0
     67544 WT7      2300     TIP3     H1       HT       0.417000        1.0080           0
     67545 WT7      2300     TIP3     H2       HT       0.417000        1.0080           0
     67546 WT7      2301     TIP3     OH2      OT      -0.834000       15.9994           0
     67547 WT7      2301     TIP3     H1       HT       0.417000        1.0080           0
     67548 WT7      2301     TIP3     H2       HT       0.417000        1.0080           0
     67549 WT7      2302     TIP3     OH2      OT      -0.834000       15.9994           0
     67550 WT7      2302     TIP3     H1       HT       0.417000        1.0080           0
     67551 WT7      2302     TIP3     H2       HT       0.417000        1.0080           0
     67552 WT7      2303     TIP3     OH2      OT      -0.834000       15.9994           0
     67553 WT7      2303     TIP3     H1       HT       0.417000        1.0080           0
     67554 WT7      2303     TIP3     H2       HT       0.417000        1.0080           0
     67555 WT7      2304     TIP3     OH2      OT      -0.834000       15.9994           0
     67556 WT7      2304     TIP3     H1       HT       0.417000        1.0080           0
     67557 WT7      2304     TIP3     H2       HT       0.417000        1.0080           0
     67558 WT7      2305     TIP3     OH2      OT      -0.834000       15.9994           0
     67559 WT7      2305     TIP3     H1       HT       0.417000        1.0080           0
     67560 WT7      2305     TIP3     H2       HT       0.417000        1.0080           0
     67561 WT7      2306     TIP3     OH2      OT      -0.834000       15.9994           0
     67562 WT7      2306     TIP3     H1       HT       0.417000        1.0080           0
     67563 WT7      2306     TIP3     H2       HT       0.417000        1.0080           0
     67564 WT7      2309     TIP3     OH2      OT      -0.834000       15.9994           0
     67565 WT7      2309     TIP3     H1       HT       0.417000        1.0080           0
     67566 WT7      2309     TIP3     H2       HT       0.417000        1.0080           0
     67567 WT7      2310     TIP3     OH2      OT      -0.834000       15.9994           0
     67568 WT7      2310     TIP3     H1       HT       0.417000        1.0080           0
     67569 WT7      2310     TIP3     H2       HT       0.417000        1.0080           0
     67570 WT7      2311     TIP3     OH2      OT      -0.834000       15.9994           0
     67571 WT7      2311     TIP3     H1       HT       0.417000        1.0080           0
     67572 WT7      2311     TIP3     H2       HT       0.417000        1.0080           0
     67573 WT7      2315     TIP3     OH2      OT      -0.834000       15.9994           0
     67574 WT7      2315     TIP3     H1       HT       0.417000        1.0080           0
     67575 WT7      2315     TIP3     H2       HT       0.417000        1.0080           0
     67576 WT7      2316     TIP3     OH2      OT      -0.834000       15.9994           0
     67577 WT7      2316     TIP3     H1       HT       0.417000        1.0080           0
     67578 WT7      2316     TIP3     H2       HT       0.417000        1.0080           0
     67579 WT7      2317     TIP3     OH2      OT      -0.834000       15.9994           0
     67580 WT7      2317     TIP3     H1       HT       0.417000        1.0080           0
     67581 WT7      2317     TIP3     H2       HT       0.417000        1.0080           0
     67582 WT7      2319     TIP3     OH2      OT      -0.834000       15.9994           0
     67583 WT7      2319     TIP3     H1       HT       0.417000        1.0080           0
     67584 WT7      2319     TIP3     H2       HT       0.417000        1.0080           0
     67585 WT7      2324     TIP3     OH2      OT      -0.834000       15.9994           0
     67586 WT7      2324     TIP3     H1       HT       0.417000        1.0080           0
     67587 WT7      2324     TIP3     H2       HT       0.417000        1.0080           0
     67588 WT7      2325     TIP3     OH2      OT      -0.834000       15.9994           0
     67589 WT7      2325     TIP3     H1       HT       0.417000        1.0080           0
     67590 WT7      2325     TIP3     H2       HT       0.417000        1.0080           0
     67591 WT7      2326     TIP3     OH2      OT      -0.834000       15.9994           0
     67592 WT7      2326     TIP3     H1       HT       0.417000        1.0080           0
     67593 WT7      2326     TIP3     H2       HT       0.417000        1.0080           0
     67594 WT7      2334     TIP3     OH2      OT      -0.834000       15.9994           0
     67595 WT7      2334     TIP3     H1       HT       0.417000        1.0080           0
     67596 WT7      2334     TIP3     H2       HT       0.417000        1.0080           0
     67597 WT7      2335     TIP3     OH2      OT      -0.834000       15.9994           0
     67598 WT7      2335     TIP3     H1       HT       0.417000        1.0080           0
     67599 WT7      2335     TIP3     H2       HT       0.417000        1.0080           0
     67600 WT7      2339     TIP3     OH2      OT      -0.834000       15.9994           0
     67601 WT7      2339     TIP3     H1       HT       0.417000        1.0080           0
     67602 WT7      2339     TIP3     H2       HT       0.417000        1.0080           0
     67603 WT7      2340     TIP3     OH2      OT      -0.834000       15.9994           0
     67604 WT7      2340     TIP3     H1       HT       0.417000        1.0080           0
     67605 WT7      2340     TIP3     H2       HT       0.417000        1.0080           0
     67606 WT7      2341     TIP3     OH2      OT      -0.834000       15.9994           0
     67607 WT7      2341     TIP3     H1       HT       0.417000        1.0080           0
     67608 WT7      2341     TIP3     H2       HT       0.417000        1.0080           0
     67609 WT7      2342     TIP3     OH2      OT      -0.834000       15.9994           0
     67610 WT7      2342     TIP3     H1       HT       0.417000        1.0080           0
     67611 WT7      2342     TIP3     H2       HT       0.417000        1.0080           0
     67612 WT7      2344     TIP3     OH2      OT      -0.834000       15.9994           0
     67613 WT7      2344     TIP3     H1       HT       0.417000        1.0080           0
     67614 WT7      2344     TIP3     H2       HT       0.417000        1.0080           0
     67615 WT7      2345     TIP3     OH2      OT      -0.834000       15.9994           0
     67616 WT7      2345     TIP3     H1       HT       0.417000        1.0080           0
     67617 WT7      2345     TIP3     H2       HT       0.417000        1.0080           0
     67618 WT7      2347     TIP3     OH2      OT      -0.834000       15.9994           0
     67619 WT7      2347     TIP3     H1       HT       0.417000        1.0080           0
     67620 WT7      2347     TIP3     H2       HT       0.417000        1.0080           0
     67621 WT7      2348     TIP3     OH2      OT      -0.834000       15.9994           0
     67622 WT7      2348     TIP3     H1       HT       0.417000        1.0080           0
     67623 WT7      2348     TIP3     H2       HT       0.417000        1.0080           0
     67624 WT7      2351     TIP3     OH2      OT      -0.834000       15.9994           0
     67625 WT7      2351     TIP3     H1       HT       0.417000        1.0080           0
     67626 WT7      2351     TIP3     H2       HT       0.417000        1.0080           0
     67627 WT7      2352     TIP3     OH2      OT      -0.834000       15.9994           0
     67628 WT7      2352     TIP3     H1       HT       0.417000        1.0080           0
     67629 WT7      2352     TIP3     H2       HT       0.417000        1.0080           0
     67630 WT7      2355     TIP3     OH2      OT      -0.834000       15.9994           0
     67631 WT7      2355     TIP3     H1       HT       0.417000        1.0080           0
     67632 WT7      2355     TIP3     H2       HT       0.417000        1.0080           0
     67633 WT7      2357     TIP3     OH2      OT      -0.834000       15.9994           0
     67634 WT7      2357     TIP3     H1       HT       0.417000        1.0080           0
     67635 WT7      2357     TIP3     H2       HT       0.417000        1.0080           0
     67636 WT7      2358     TIP3     OH2      OT      -0.834000       15.9994           0
     67637 WT7      2358     TIP3     H1       HT       0.417000        1.0080           0
     67638 WT7      2358     TIP3     H2       HT       0.417000        1.0080           0
     67639 WT7      2359     TIP3     OH2      OT      -0.834000       15.9994           0
     67640 WT7      2359     TIP3     H1       HT       0.417000        1.0080           0
     67641 WT7      2359     TIP3     H2       HT       0.417000        1.0080           0
     67642 WT7      2362     TIP3     OH2      OT      -0.834000       15.9994           0
     67643 WT7      2362     TIP3     H1       HT       0.417000        1.0080           0
     67644 WT7      2362     TIP3     H2       HT       0.417000        1.0080           0
     67645 WT7      2371     TIP3     OH2      OT      -0.834000       15.9994           0
     67646 WT7      2371     TIP3     H1       HT       0.417000        1.0080           0
     67647 WT7      2371     TIP3     H2       HT       0.417000        1.0080           0
     67648 WT7      2377     TIP3     OH2      OT      -0.834000       15.9994           0
     67649 WT7      2377     TIP3     H1       HT       0.417000        1.0080           0
     67650 WT7      2377     TIP3     H2       HT       0.417000        1.0080           0
     67651 WT7      2380     TIP3     OH2      OT      -0.834000       15.9994           0
     67652 WT7      2380     TIP3     H1       HT       0.417000        1.0080           0
     67653 WT7      2380     TIP3     H2       HT       0.417000        1.0080           0
     67654 WT7      2381     TIP3     OH2      OT      -0.834000       15.9994           0
     67655 WT7      2381     TIP3     H1       HT       0.417000        1.0080           0
     67656 WT7      2381     TIP3     H2       HT       0.417000        1.0080           0
     67657 WT7      2390     TIP3     OH2      OT      -0.834000       15.9994           0
     67658 WT7      2390     TIP3     H1       HT       0.417000        1.0080           0
     67659 WT7      2390     TIP3     H2       HT       0.417000        1.0080           0
     67660 WT7      2402     TIP3     OH2      OT      -0.834000       15.9994           0
     67661 WT7      2402     TIP3     H1       HT       0.417000        1.0080           0
     67662 WT7      2402     TIP3     H2       HT       0.417000        1.0080           0
     67663 WT7      2406     TIP3     OH2      OT      -0.834000       15.9994           0
     67664 WT7      2406     TIP3     H1       HT       0.417000        1.0080           0
     67665 WT7      2406     TIP3     H2       HT       0.417000        1.0080           0
     67666 WT7      2411     TIP3     OH2      OT      -0.834000       15.9994           0
     67667 WT7      2411     TIP3     H1       HT       0.417000        1.0080           0
     67668 WT7      2411     TIP3     H2       HT       0.417000        1.0080           0
     67669 WT7      2414     TIP3     OH2      OT      -0.834000       15.9994           0
     67670 WT7      2414     TIP3     H1       HT       0.417000        1.0080           0
     67671 WT7      2414     TIP3     H2       HT       0.417000        1.0080           0
     67672 WT7      2432     TIP3     OH2      OT      -0.834000       15.9994           0
     67673 WT7      2432     TIP3     H1       HT       0.417000        1.0080           0
     67674 WT7      2432     TIP3     H2       HT       0.417000        1.0080           0
     67675 WT7      2434     TIP3     OH2      OT      -0.834000       15.9994           0
     67676 WT7      2434     TIP3     H1       HT       0.417000        1.0080           0
     67677 WT7      2434     TIP3     H2       HT       0.417000        1.0080           0
     67678 WT7      2449     TIP3     OH2      OT      -0.834000       15.9994           0
     67679 WT7      2449     TIP3     H1       HT       0.417000        1.0080           0
     67680 WT7      2449     TIP3     H2       HT       0.417000        1.0080           0
     67681 WT7      2451     TIP3     OH2      OT      -0.834000       15.9994           0
     67682 WT7      2451     TIP3     H1       HT       0.417000        1.0080           0
     67683 WT7      2451     TIP3     H2       HT       0.417000        1.0080           0
     67684 WT7      2457     TIP3     OH2      OT      -0.834000       15.9994           0
     67685 WT7      2457     TIP3     H1       HT       0.417000        1.0080           0
     67686 WT7      2457     TIP3     H2       HT       0.417000        1.0080           0
     67687 WT7      2475     TIP3     OH2      OT      -0.834000       15.9994           0
     67688 WT7      2475     TIP3     H1       HT       0.417000        1.0080           0
     67689 WT7      2475     TIP3     H2       HT       0.417000        1.0080           0
     67690 WT7      2561     TIP3     OH2      OT      -0.834000       15.9994           0
     67691 WT7      2561     TIP3     H1       HT       0.417000        1.0080           0
     67692 WT7      2561     TIP3     H2       HT       0.417000        1.0080           0
     67693 WT7      2590     TIP3     OH2      OT      -0.834000       15.9994           0
     67694 WT7      2590     TIP3     H1       HT       0.417000        1.0080           0
     67695 WT7      2590     TIP3     H2       HT       0.417000        1.0080           0
     67696 WT7      2591     TIP3     OH2      OT      -0.834000       15.9994           0
     67697 WT7      2591     TIP3     H1       HT       0.417000        1.0080           0
     67698 WT7      2591     TIP3     H2       HT       0.417000        1.0080           0
     67699 WT7      2606     TIP3     OH2      OT      -0.834000       15.9994           0
     67700 WT7      2606     TIP3     H1       HT       0.417000        1.0080           0
     67701 WT7      2606     TIP3     H2       HT       0.417000        1.0080           0
     67702 WT7      2607     TIP3     OH2      OT      -0.834000       15.9994           0
     67703 WT7      2607     TIP3     H1       HT       0.417000        1.0080           0
     67704 WT7      2607     TIP3     H2       HT       0.417000        1.0080           0
     67705 WT7      2608     TIP3     OH2      OT      -0.834000       15.9994           0
     67706 WT7      2608     TIP3     H1       HT       0.417000        1.0080           0
     67707 WT7      2608     TIP3     H2       HT       0.417000        1.0080           0
     67708 WT7      2616     TIP3     OH2      OT      -0.834000       15.9994           0
     67709 WT7      2616     TIP3     H1       HT       0.417000        1.0080           0
     67710 WT7      2616     TIP3     H2       HT       0.417000        1.0080           0
     67711 WT7      2617     TIP3     OH2      OT      -0.834000       15.9994           0
     67712 WT7      2617     TIP3     H1       HT       0.417000        1.0080           0
     67713 WT7      2617     TIP3     H2       HT       0.417000        1.0080           0
     67714 WT7      2621     TIP3     OH2      OT      -0.834000       15.9994           0
     67715 WT7      2621     TIP3     H1       HT       0.417000        1.0080           0
     67716 WT7      2621     TIP3     H2       HT       0.417000        1.0080           0
     67717 WT7      2624     TIP3     OH2      OT      -0.834000       15.9994           0
     67718 WT7      2624     TIP3     H1       HT       0.417000        1.0080           0
     67719 WT7      2624     TIP3     H2       HT       0.417000        1.0080           0
     67720 WT7      2626     TIP3     OH2      OT      -0.834000       15.9994           0
     67721 WT7      2626     TIP3     H1       HT       0.417000        1.0080           0
     67722 WT7      2626     TIP3     H2       HT       0.417000        1.0080           0
     67723 WT7      2629     TIP3     OH2      OT      -0.834000       15.9994           0
     67724 WT7      2629     TIP3     H1       HT       0.417000        1.0080           0
     67725 WT7      2629     TIP3     H2       HT       0.417000        1.0080           0
     67726 WT7      2630     TIP3     OH2      OT      -0.834000       15.9994           0
     67727 WT7      2630     TIP3     H1       HT       0.417000        1.0080           0
     67728 WT7      2630     TIP3     H2       HT       0.417000        1.0080           0
     67729 WT7      2633     TIP3     OH2      OT      -0.834000       15.9994           0
     67730 WT7      2633     TIP3     H1       HT       0.417000        1.0080           0
     67731 WT7      2633     TIP3     H2       HT       0.417000        1.0080           0
     67732 WT7      2634     TIP3     OH2      OT      -0.834000       15.9994           0
     67733 WT7      2634     TIP3     H1       HT       0.417000        1.0080           0
     67734 WT7      2634     TIP3     H2       HT       0.417000        1.0080           0
     67735 WT7      2638     TIP3     OH2      OT      -0.834000       15.9994           0
     67736 WT7      2638     TIP3     H1       HT       0.417000        1.0080           0
     67737 WT7      2638     TIP3     H2       HT       0.417000        1.0080           0
     67738 WT7      2644     TIP3     OH2      OT      -0.834000       15.9994           0
     67739 WT7      2644     TIP3     H1       HT       0.417000        1.0080           0
     67740 WT7      2644     TIP3     H2       HT       0.417000        1.0080           0
     67741 WT7      2646     TIP3     OH2      OT      -0.834000       15.9994           0
     67742 WT7      2646     TIP3     H1       HT       0.417000        1.0080           0
     67743 WT7      2646     TIP3     H2       HT       0.417000        1.0080           0
     67744 WT7      2656     TIP3     OH2      OT      -0.834000       15.9994           0
     67745 WT7      2656     TIP3     H1       HT       0.417000        1.0080           0
     67746 WT7      2656     TIP3     H2       HT       0.417000        1.0080           0
     67747 WT7      2657     TIP3     OH2      OT      -0.834000       15.9994           0
     67748 WT7      2657     TIP3     H1       HT       0.417000        1.0080           0
     67749 WT7      2657     TIP3     H2       HT       0.417000        1.0080           0
     67750 WT7      2659     TIP3     OH2      OT      -0.834000       15.9994           0
     67751 WT7      2659     TIP3     H1       HT       0.417000        1.0080           0
     67752 WT7      2659     TIP3     H2       HT       0.417000        1.0080           0
     67753 WT7      2661     TIP3     OH2      OT      -0.834000       15.9994           0
     67754 WT7      2661     TIP3     H1       HT       0.417000        1.0080           0
     67755 WT7      2661     TIP3     H2       HT       0.417000        1.0080           0
     67756 WT7      2662     TIP3     OH2      OT      -0.834000       15.9994           0
     67757 WT7      2662     TIP3     H1       HT       0.417000        1.0080           0
     67758 WT7      2662     TIP3     H2       HT       0.417000        1.0080           0
     67759 WT7      2664     TIP3     OH2      OT      -0.834000       15.9994           0
     67760 WT7      2664     TIP3     H1       HT       0.417000        1.0080           0
     67761 WT7      2664     TIP3     H2       HT       0.417000        1.0080           0
     67762 WT7      2666     TIP3     OH2      OT      -0.834000       15.9994           0
     67763 WT7      2666     TIP3     H1       HT       0.417000        1.0080           0
     67764 WT7      2666     TIP3     H2       HT       0.417000        1.0080           0
     67765 WT7      2669     TIP3     OH2      OT      -0.834000       15.9994           0
     67766 WT7      2669     TIP3     H1       HT       0.417000        1.0080           0
     67767 WT7      2669     TIP3     H2       HT       0.417000        1.0080           0
     67768 WT7      2673     TIP3     OH2      OT      -0.834000       15.9994           0
     67769 WT7      2673     TIP3     H1       HT       0.417000        1.0080           0
     67770 WT7      2673     TIP3     H2       HT       0.417000        1.0080           0
     67771 WT7      2675     TIP3     OH2      OT      -0.834000       15.9994           0
     67772 WT7      2675     TIP3     H1       HT       0.417000        1.0080           0
     67773 WT7      2675     TIP3     H2       HT       0.417000        1.0080           0
     67774 WT7      2677     TIP3     OH2      OT      -0.834000       15.9994           0
     67775 WT7      2677     TIP3     H1       HT       0.417000        1.0080           0
     67776 WT7      2677     TIP3     H2       HT       0.417000        1.0080           0
     67777 WT7      2680     TIP3     OH2      OT      -0.834000       15.9994           0
     67778 WT7      2680     TIP3     H1       HT       0.417000        1.0080           0
     67779 WT7      2680     TIP3     H2       HT       0.417000        1.0080           0
     67780 WT7      2681     TIP3     OH2      OT      -0.834000       15.9994           0
     67781 WT7      2681     TIP3     H1       HT       0.417000        1.0080           0
     67782 WT7      2681     TIP3     H2       HT       0.417000        1.0080           0
     67783 WT7      2682     TIP3     OH2      OT      -0.834000       15.9994           0
     67784 WT7      2682     TIP3     H1       HT       0.417000        1.0080           0
     67785 WT7      2682     TIP3     H2       HT       0.417000        1.0080           0
     67786 WT7      2683     TIP3     OH2      OT      -0.834000       15.9994           0
     67787 WT7      2683     TIP3     H1       HT       0.417000        1.0080           0
     67788 WT7      2683     TIP3     H2       HT       0.417000        1.0080           0
     67789 WT7      2684     TIP3     OH2      OT      -0.834000       15.9994           0
     67790 WT7      2684     TIP3     H1       HT       0.417000        1.0080           0
     67791 WT7      2684     TIP3     H2       HT       0.417000        1.0080           0
     67792 WT7      2686     TIP3     OH2      OT      -0.834000       15.9994           0
     67793 WT7      2686     TIP3     H1       HT       0.417000        1.0080           0
     67794 WT7      2686     TIP3     H2       HT       0.417000        1.0080           0
     67795 WT7      2688     TIP3     OH2      OT      -0.834000       15.9994           0
     67796 WT7      2688     TIP3     H1       HT       0.417000        1.0080           0
     67797 WT7      2688     TIP3     H2       HT       0.417000        1.0080           0
     67798 WT7      2689     TIP3     OH2      OT      -0.834000       15.9994           0
     67799 WT7      2689     TIP3     H1       HT       0.417000        1.0080           0
     67800 WT7      2689     TIP3     H2       HT       0.417000        1.0080           0
     67801 WT7      2690     TIP3     OH2      OT      -0.834000       15.9994           0
     67802 WT7      2690     TIP3     H1       HT       0.417000        1.0080           0
     67803 WT7      2690     TIP3     H2       HT       0.417000        1.0080           0
     67804 WT7      2691     TIP3     OH2      OT      -0.834000       15.9994           0
     67805 WT7      2691     TIP3     H1       HT       0.417000        1.0080           0
     67806 WT7      2691     TIP3     H2       HT       0.417000        1.0080           0
     67807 WT7      2693     TIP3     OH2      OT      -0.834000       15.9994           0
     67808 WT7      2693     TIP3     H1       HT       0.417000        1.0080           0
     67809 WT7      2693     TIP3     H2       HT       0.417000        1.0080           0
     67810 WT7      2694     TIP3     OH2      OT      -0.834000       15.9994           0
     67811 WT7      2694     TIP3     H1       HT       0.417000        1.0080           0
     67812 WT7      2694     TIP3     H2       HT       0.417000        1.0080           0
     67813 WT7      2697     TIP3     OH2      OT      -0.834000       15.9994           0
     67814 WT7      2697     TIP3     H1       HT       0.417000        1.0080           0
     67815 WT7      2697     TIP3     H2       HT       0.417000        1.0080           0
     67816 WT7      2702     TIP3     OH2      OT      -0.834000       15.9994           0
     67817 WT7      2702     TIP3     H1       HT       0.417000        1.0080           0
     67818 WT7      2702     TIP3     H2       HT       0.417000        1.0080           0
     67819 WT7      2705     TIP3     OH2      OT      -0.834000       15.9994           0
     67820 WT7      2705     TIP3     H1       HT       0.417000        1.0080           0
     67821 WT7      2705     TIP3     H2       HT       0.417000        1.0080           0
     67822 WT7      2706     TIP3     OH2      OT      -0.834000       15.9994           0
     67823 WT7      2706     TIP3     H1       HT       0.417000        1.0080           0
     67824 WT7      2706     TIP3     H2       HT       0.417000        1.0080           0
     67825 WT7      2707     TIP3     OH2      OT      -0.834000       15.9994           0
     67826 WT7      2707     TIP3     H1       HT       0.417000        1.0080           0
     67827 WT7      2707     TIP3     H2       HT       0.417000        1.0080           0
     67828 WT7      2709     TIP3     OH2      OT      -0.834000       15.9994           0
     67829 WT7      2709     TIP3     H1       HT       0.417000        1.0080           0
     67830 WT7      2709     TIP3     H2       HT       0.417000        1.0080           0
     67831 WT7      2711     TIP3     OH2      OT      -0.834000       15.9994           0
     67832 WT7      2711     TIP3     H1       HT       0.417000        1.0080           0
     67833 WT7      2711     TIP3     H2       HT       0.417000        1.0080           0
     67834 WT7      2713     TIP3     OH2      OT      -0.834000       15.9994           0
     67835 WT7      2713     TIP3     H1       HT       0.417000        1.0080           0
     67836 WT7      2713     TIP3     H2       HT       0.417000        1.0080           0
     67837 WT7      2714     TIP3     OH2      OT      -0.834000       15.9994           0
     67838 WT7      2714     TIP3     H1       HT       0.417000        1.0080           0
     67839 WT7      2714     TIP3     H2       HT       0.417000        1.0080           0
     67840 WT7      2715     TIP3     OH2      OT      -0.834000       15.9994           0
     67841 WT7      2715     TIP3     H1       HT       0.417000        1.0080           0
     67842 WT7      2715     TIP3     H2       HT       0.417000        1.0080           0
     67843 WT7      2720     TIP3     OH2      OT      -0.834000       15.9994           0
     67844 WT7      2720     TIP3     H1       HT       0.417000        1.0080           0
     67845 WT7      2720     TIP3     H2       HT       0.417000        1.0080           0
     67846 WT7      2723     TIP3     OH2      OT      -0.834000       15.9994           0
     67847 WT7      2723     TIP3     H1       HT       0.417000        1.0080           0
     67848 WT7      2723     TIP3     H2       HT       0.417000        1.0080           0
     67849 WT7      2724     TIP3     OH2      OT      -0.834000       15.9994           0
     67850 WT7      2724     TIP3     H1       HT       0.417000        1.0080           0
     67851 WT7      2724     TIP3     H2       HT       0.417000        1.0080           0
     67852 WT7      2725     TIP3     OH2      OT      -0.834000       15.9994           0
     67853 WT7      2725     TIP3     H1       HT       0.417000        1.0080           0
     67854 WT7      2725     TIP3     H2       HT       0.417000        1.0080           0
     67855 WT7      2726     TIP3     OH2      OT      -0.834000       15.9994           0
     67856 WT7      2726     TIP3     H1       HT       0.417000        1.0080           0
     67857 WT7      2726     TIP3     H2       HT       0.417000        1.0080           0
     67858 WT7      2727     TIP3     OH2      OT      -0.834000       15.9994           0
     67859 WT7      2727     TIP3     H1       HT       0.417000        1.0080           0
     67860 WT7      2727     TIP3     H2       HT       0.417000        1.0080           0
     67861 WT7      2728     TIP3     OH2      OT      -0.834000       15.9994           0
     67862 WT7      2728     TIP3     H1       HT       0.417000        1.0080           0
     67863 WT7      2728     TIP3     H2       HT       0.417000        1.0080           0
     67864 WT7      2730     TIP3     OH2      OT      -0.834000       15.9994           0
     67865 WT7      2730     TIP3     H1       HT       0.417000        1.0080           0
     67866 WT7      2730     TIP3     H2       HT       0.417000        1.0080           0
     67867 WT7      2732     TIP3     OH2      OT      -0.834000       15.9994           0
     67868 WT7      2732     TIP3     H1       HT       0.417000        1.0080           0
     67869 WT7      2732     TIP3     H2       HT       0.417000        1.0080           0
     67870 WT7      2734     TIP3     OH2      OT      -0.834000       15.9994           0
     67871 WT7      2734     TIP3     H1       HT       0.417000        1.0080           0
     67872 WT7      2734     TIP3     H2       HT       0.417000        1.0080           0
     67873 WT7      2735     TIP3     OH2      OT      -0.834000       15.9994           0
     67874 WT7      2735     TIP3     H1       HT       0.417000        1.0080           0
     67875 WT7      2735     TIP3     H2       HT       0.417000        1.0080           0
     67876 WT7      2737     TIP3     OH2      OT      -0.834000       15.9994           0
     67877 WT7      2737     TIP3     H1       HT       0.417000        1.0080           0
     67878 WT7      2737     TIP3     H2       HT       0.417000        1.0080           0
     67879 WT7      2741     TIP3     OH2      OT      -0.834000       15.9994           0
     67880 WT7      2741     TIP3     H1       HT       0.417000        1.0080           0
     67881 WT7      2741     TIP3     H2       HT       0.417000        1.0080           0
     67882 WT7      2743     TIP3     OH2      OT      -0.834000       15.9994           0
     67883 WT7      2743     TIP3     H1       HT       0.417000        1.0080           0
     67884 WT7      2743     TIP3     H2       HT       0.417000        1.0080           0
     67885 WT7      2746     TIP3     OH2      OT      -0.834000       15.9994           0
     67886 WT7      2746     TIP3     H1       HT       0.417000        1.0080           0
     67887 WT7      2746     TIP3     H2       HT       0.417000        1.0080           0
     67888 WT7      2747     TIP3     OH2      OT      -0.834000       15.9994           0
     67889 WT7      2747     TIP3     H1       HT       0.417000        1.0080           0
     67890 WT7      2747     TIP3     H2       HT       0.417000        1.0080           0
     67891 WT7      2748     TIP3     OH2      OT      -0.834000       15.9994           0
     67892 WT7      2748     TIP3     H1       HT       0.417000        1.0080           0
     67893 WT7      2748     TIP3     H2       HT       0.417000        1.0080           0
     67894 WT7      2749     TIP3     OH2      OT      -0.834000       15.9994           0
     67895 WT7      2749     TIP3     H1       HT       0.417000        1.0080           0
     67896 WT7      2749     TIP3     H2       HT       0.417000        1.0080           0
     67897 WT7      2750     TIP3     OH2      OT      -0.834000       15.9994           0
     67898 WT7      2750     TIP3     H1       HT       0.417000        1.0080           0
     67899 WT7      2750     TIP3     H2       HT       0.417000        1.0080           0
     67900 WT7      2752     TIP3     OH2      OT      -0.834000       15.9994           0
     67901 WT7      2752     TIP3     H1       HT       0.417000        1.0080           0
     67902 WT7      2752     TIP3     H2       HT       0.417000        1.0080           0
     67903 WT7      2758     TIP3     OH2      OT      -0.834000       15.9994           0
     67904 WT7      2758     TIP3     H1       HT       0.417000        1.0080           0
     67905 WT7      2758     TIP3     H2       HT       0.417000        1.0080           0
     67906 WT7      2759     TIP3     OH2      OT      -0.834000       15.9994           0
     67907 WT7      2759     TIP3     H1       HT       0.417000        1.0080           0
     67908 WT7      2759     TIP3     H2       HT       0.417000        1.0080           0
     67909 WT7      2760     TIP3     OH2      OT      -0.834000       15.9994           0
     67910 WT7      2760     TIP3     H1       HT       0.417000        1.0080           0
     67911 WT7      2760     TIP3     H2       HT       0.417000        1.0080           0
     67912 WT7      2762     TIP3     OH2      OT      -0.834000       15.9994           0
     67913 WT7      2762     TIP3     H1       HT       0.417000        1.0080           0
     67914 WT7      2762     TIP3     H2       HT       0.417000        1.0080           0
     67915 WT7      2764     TIP3     OH2      OT      -0.834000       15.9994           0
     67916 WT7      2764     TIP3     H1       HT       0.417000        1.0080           0
     67917 WT7      2764     TIP3     H2       HT       0.417000        1.0080           0
     67918 WT7      2765     TIP3     OH2      OT      -0.834000       15.9994           0
     67919 WT7      2765     TIP3     H1       HT       0.417000        1.0080           0
     67920 WT7      2765     TIP3     H2       HT       0.417000        1.0080           0
     67921 WT7      2769     TIP3     OH2      OT      -0.834000       15.9994           0
     67922 WT7      2769     TIP3     H1       HT       0.417000        1.0080           0
     67923 WT7      2769     TIP3     H2       HT       0.417000        1.0080           0
     67924 WT7      2770     TIP3     OH2      OT      -0.834000       15.9994           0
     67925 WT7      2770     TIP3     H1       HT       0.417000        1.0080           0
     67926 WT7      2770     TIP3     H2       HT       0.417000        1.0080           0
     67927 WT7      2771     TIP3     OH2      OT      -0.834000       15.9994           0
     67928 WT7      2771     TIP3     H1       HT       0.417000        1.0080           0
     67929 WT7      2771     TIP3     H2       HT       0.417000        1.0080           0
     67930 WT7      2776     TIP3     OH2      OT      -0.834000       15.9994           0
     67931 WT7      2776     TIP3     H1       HT       0.417000        1.0080           0
     67932 WT7      2776     TIP3     H2       HT       0.417000        1.0080           0
     67933 WT7      2778     TIP3     OH2      OT      -0.834000       15.9994           0
     67934 WT7      2778     TIP3     H1       HT       0.417000        1.0080           0
     67935 WT7      2778     TIP3     H2       HT       0.417000        1.0080           0
     67936 WT7      2779     TIP3     OH2      OT      -0.834000       15.9994           0
     67937 WT7      2779     TIP3     H1       HT       0.417000        1.0080           0
     67938 WT7      2779     TIP3     H2       HT       0.417000        1.0080           0
     67939 WT7      2786     TIP3     OH2      OT      -0.834000       15.9994           0
     67940 WT7      2786     TIP3     H1       HT       0.417000        1.0080           0
     67941 WT7      2786     TIP3     H2       HT       0.417000        1.0080           0
     67942 WT7      2791     TIP3     OH2      OT      -0.834000       15.9994           0
     67943 WT7      2791     TIP3     H1       HT       0.417000        1.0080           0
     67944 WT7      2791     TIP3     H2       HT       0.417000        1.0080           0
     67945 WT7      2794     TIP3     OH2      OT      -0.834000       15.9994           0
     67946 WT7      2794     TIP3     H1       HT       0.417000        1.0080           0
     67947 WT7      2794     TIP3     H2       HT       0.417000        1.0080           0
     67948 WT7      2800     TIP3     OH2      OT      -0.834000       15.9994           0
     67949 WT7      2800     TIP3     H1       HT       0.417000        1.0080           0
     67950 WT7      2800     TIP3     H2       HT       0.417000        1.0080           0
     67951 WT7      2801     TIP3     OH2      OT      -0.834000       15.9994           0
     67952 WT7      2801     TIP3     H1       HT       0.417000        1.0080           0
     67953 WT7      2801     TIP3     H2       HT       0.417000        1.0080           0
     67954 WT7      2809     TIP3     OH2      OT      -0.834000       15.9994           0
     67955 WT7      2809     TIP3     H1       HT       0.417000        1.0080           0
     67956 WT7      2809     TIP3     H2       HT       0.417000        1.0080           0
     67957 WT7      2812     TIP3     OH2      OT      -0.834000       15.9994           0
     67958 WT7      2812     TIP3     H1       HT       0.417000        1.0080           0
     67959 WT7      2812     TIP3     H2       HT       0.417000        1.0080           0
     67960 WT7      2813     TIP3     OH2      OT      -0.834000       15.9994           0
     67961 WT7      2813     TIP3     H1       HT       0.417000        1.0080           0
     67962 WT7      2813     TIP3     H2       HT       0.417000        1.0080           0
     67963 WT7      2815     TIP3     OH2      OT      -0.834000       15.9994           0
     67964 WT7      2815     TIP3     H1       HT       0.417000        1.0080           0
     67965 WT7      2815     TIP3     H2       HT       0.417000        1.0080           0
     67966 WT7      2817     TIP3     OH2      OT      -0.834000       15.9994           0
     67967 WT7      2817     TIP3     H1       HT       0.417000        1.0080           0
     67968 WT7      2817     TIP3     H2       HT       0.417000        1.0080           0
     67969 WT7      2824     TIP3     OH2      OT      -0.834000       15.9994           0
     67970 WT7      2824     TIP3     H1       HT       0.417000        1.0080           0
     67971 WT7      2824     TIP3     H2       HT       0.417000        1.0080           0
     67972 WT7      2826     TIP3     OH2      OT      -0.834000       15.9994           0
     67973 WT7      2826     TIP3     H1       HT       0.417000        1.0080           0
     67974 WT7      2826     TIP3     H2       HT       0.417000        1.0080           0
     67975 WT7      2827     TIP3     OH2      OT      -0.834000       15.9994           0
     67976 WT7      2827     TIP3     H1       HT       0.417000        1.0080           0
     67977 WT7      2827     TIP3     H2       HT       0.417000        1.0080           0
     67978 WT7      2833     TIP3     OH2      OT      -0.834000       15.9994           0
     67979 WT7      2833     TIP3     H1       HT       0.417000        1.0080           0
     67980 WT7      2833     TIP3     H2       HT       0.417000        1.0080           0
     67981 WT7      2845     TIP3     OH2      OT      -0.834000       15.9994           0
     67982 WT7      2845     TIP3     H1       HT       0.417000        1.0080           0
     67983 WT7      2845     TIP3     H2       HT       0.417000        1.0080           0
     67984 WT7      2846     TIP3     OH2      OT      -0.834000       15.9994           0
     67985 WT7      2846     TIP3     H1       HT       0.417000        1.0080           0
     67986 WT7      2846     TIP3     H2       HT       0.417000        1.0080           0
     67987 WT7      2855     TIP3     OH2      OT      -0.834000       15.9994           0
     67988 WT7      2855     TIP3     H1       HT       0.417000        1.0080           0
     67989 WT7      2855     TIP3     H2       HT       0.417000        1.0080           0
     67990 WT7      2866     TIP3     OH2      OT      -0.834000       15.9994           0
     67991 WT7      2866     TIP3     H1       HT       0.417000        1.0080           0
     67992 WT7      2866     TIP3     H2       HT       0.417000        1.0080           0
     67993 WT7      2885     TIP3     OH2      OT      -0.834000       15.9994           0
     67994 WT7      2885     TIP3     H1       HT       0.417000        1.0080           0
     67995 WT7      2885     TIP3     H2       HT       0.417000        1.0080           0
     67996 WT7      2913     TIP3     OH2      OT      -0.834000       15.9994           0
     67997 WT7      2913     TIP3     H1       HT       0.417000        1.0080           0
     67998 WT7      2913     TIP3     H2       HT       0.417000        1.0080           0
     67999 WT7      2957     TIP3     OH2      OT      -0.834000       15.9994           0
     68000 WT7      2957     TIP3     H1       HT       0.417000        1.0080           0
     68001 WT7      2957     TIP3     H2       HT       0.417000        1.0080           0
     68002 WT7      2985     TIP3     OH2      OT      -0.834000       15.9994           0
     68003 WT7      2985     TIP3     H1       HT       0.417000        1.0080           0
     68004 WT7      2985     TIP3     H2       HT       0.417000        1.0080           0
     68005 WT7      3010     TIP3     OH2      OT      -0.834000       15.9994           0
     68006 WT7      3010     TIP3     H1       HT       0.417000        1.0080           0
     68007 WT7      3010     TIP3     H2       HT       0.417000        1.0080           0
     68008 WT7      3012     TIP3     OH2      OT      -0.834000       15.9994           0
     68009 WT7      3012     TIP3     H1       HT       0.417000        1.0080           0
     68010 WT7      3012     TIP3     H2       HT       0.417000        1.0080           0
     68011 WT7      3016     TIP3     OH2      OT      -0.834000       15.9994           0
     68012 WT7      3016     TIP3     H1       HT       0.417000        1.0080           0
     68013 WT7      3016     TIP3     H2       HT       0.417000        1.0080           0
     68014 WT7      3024     TIP3     OH2      OT      -0.834000       15.9994           0
     68015 WT7      3024     TIP3     H1       HT       0.417000        1.0080           0
     68016 WT7      3024     TIP3     H2       HT       0.417000        1.0080           0
     68017 WT7      3027     TIP3     OH2      OT      -0.834000       15.9994           0
     68018 WT7      3027     TIP3     H1       HT       0.417000        1.0080           0
     68019 WT7      3027     TIP3     H2       HT       0.417000        1.0080           0
     68020 WT7      3033     TIP3     OH2      OT      -0.834000       15.9994           0
     68021 WT7      3033     TIP3     H1       HT       0.417000        1.0080           0
     68022 WT7      3033     TIP3     H2       HT       0.417000        1.0080           0
     68023 WT7      3037     TIP3     OH2      OT      -0.834000       15.9994           0
     68024 WT7      3037     TIP3     H1       HT       0.417000        1.0080           0
     68025 WT7      3037     TIP3     H2       HT       0.417000        1.0080           0
     68026 WT7      3049     TIP3     OH2      OT      -0.834000       15.9994           0
     68027 WT7      3049     TIP3     H1       HT       0.417000        1.0080           0
     68028 WT7      3049     TIP3     H2       HT       0.417000        1.0080           0
     68029 WT7      3053     TIP3     OH2      OT      -0.834000       15.9994           0
     68030 WT7      3053     TIP3     H1       HT       0.417000        1.0080           0
     68031 WT7      3053     TIP3     H2       HT       0.417000        1.0080           0
     68032 WT7      3057     TIP3     OH2      OT      -0.834000       15.9994           0
     68033 WT7      3057     TIP3     H1       HT       0.417000        1.0080           0
     68034 WT7      3057     TIP3     H2       HT       0.417000        1.0080           0
     68035 WT7      3058     TIP3     OH2      OT      -0.834000       15.9994           0
     68036 WT7      3058     TIP3     H1       HT       0.417000        1.0080           0
     68037 WT7      3058     TIP3     H2       HT       0.417000        1.0080           0
     68038 WT7      3059     TIP3     OH2      OT      -0.834000       15.9994           0
     68039 WT7      3059     TIP3     H1       HT       0.417000        1.0080           0
     68040 WT7      3059     TIP3     H2       HT       0.417000        1.0080           0
     68041 WT7      3066     TIP3     OH2      OT      -0.834000       15.9994           0
     68042 WT7      3066     TIP3     H1       HT       0.417000        1.0080           0
     68043 WT7      3066     TIP3     H2       HT       0.417000        1.0080           0
     68044 WT7      3071     TIP3     OH2      OT      -0.834000       15.9994           0
     68045 WT7      3071     TIP3     H1       HT       0.417000        1.0080           0
     68046 WT7      3071     TIP3     H2       HT       0.417000        1.0080           0
     68047 WT7      3072     TIP3     OH2      OT      -0.834000       15.9994           0
     68048 WT7      3072     TIP3     H1       HT       0.417000        1.0080           0
     68049 WT7      3072     TIP3     H2       HT       0.417000        1.0080           0
     68050 WT7      3073     TIP3     OH2      OT      -0.834000       15.9994           0
     68051 WT7      3073     TIP3     H1       HT       0.417000        1.0080           0
     68052 WT7      3073     TIP3     H2       HT       0.417000        1.0080           0
     68053 WT7      3079     TIP3     OH2      OT      -0.834000       15.9994           0
     68054 WT7      3079     TIP3     H1       HT       0.417000        1.0080           0
     68055 WT7      3079     TIP3     H2       HT       0.417000        1.0080           0
     68056 WT7      3080     TIP3     OH2      OT      -0.834000       15.9994           0
     68057 WT7      3080     TIP3     H1       HT       0.417000        1.0080           0
     68058 WT7      3080     TIP3     H2       HT       0.417000        1.0080           0
     68059 WT7      3081     TIP3     OH2      OT      -0.834000       15.9994           0
     68060 WT7      3081     TIP3     H1       HT       0.417000        1.0080           0
     68061 WT7      3081     TIP3     H2       HT       0.417000        1.0080           0
     68062 WT7      3084     TIP3     OH2      OT      -0.834000       15.9994           0
     68063 WT7      3084     TIP3     H1       HT       0.417000        1.0080           0
     68064 WT7      3084     TIP3     H2       HT       0.417000        1.0080           0
     68065 WT7      3086     TIP3     OH2      OT      -0.834000       15.9994           0
     68066 WT7      3086     TIP3     H1       HT       0.417000        1.0080           0
     68067 WT7      3086     TIP3     H2       HT       0.417000        1.0080           0
     68068 WT7      3091     TIP3     OH2      OT      -0.834000       15.9994           0
     68069 WT7      3091     TIP3     H1       HT       0.417000        1.0080           0
     68070 WT7      3091     TIP3     H2       HT       0.417000        1.0080           0
     68071 WT7      3096     TIP3     OH2      OT      -0.834000       15.9994           0
     68072 WT7      3096     TIP3     H1       HT       0.417000        1.0080           0
     68073 WT7      3096     TIP3     H2       HT       0.417000        1.0080           0
     68074 WT7      3099     TIP3     OH2      OT      -0.834000       15.9994           0
     68075 WT7      3099     TIP3     H1       HT       0.417000        1.0080           0
     68076 WT7      3099     TIP3     H2       HT       0.417000        1.0080           0
     68077 WT7      3101     TIP3     OH2      OT      -0.834000       15.9994           0
     68078 WT7      3101     TIP3     H1       HT       0.417000        1.0080           0
     68079 WT7      3101     TIP3     H2       HT       0.417000        1.0080           0
     68080 WT7      3102     TIP3     OH2      OT      -0.834000       15.9994           0
     68081 WT7      3102     TIP3     H1       HT       0.417000        1.0080           0
     68082 WT7      3102     TIP3     H2       HT       0.417000        1.0080           0
     68083 WT7      3103     TIP3     OH2      OT      -0.834000       15.9994           0
     68084 WT7      3103     TIP3     H1       HT       0.417000        1.0080           0
     68085 WT7      3103     TIP3     H2       HT       0.417000        1.0080           0
     68086 WT7      3104     TIP3     OH2      OT      -0.834000       15.9994           0
     68087 WT7      3104     TIP3     H1       HT       0.417000        1.0080           0
     68088 WT7      3104     TIP3     H2       HT       0.417000        1.0080           0
     68089 WT7      3105     TIP3     OH2      OT      -0.834000       15.9994           0
     68090 WT7      3105     TIP3     H1       HT       0.417000        1.0080           0
     68091 WT7      3105     TIP3     H2       HT       0.417000        1.0080           0
     68092 WT7      3108     TIP3     OH2      OT      -0.834000       15.9994           0
     68093 WT7      3108     TIP3     H1       HT       0.417000        1.0080           0
     68094 WT7      3108     TIP3     H2       HT       0.417000        1.0080           0
     68095 WT7      3109     TIP3     OH2      OT      -0.834000       15.9994           0
     68096 WT7      3109     TIP3     H1       HT       0.417000        1.0080           0
     68097 WT7      3109     TIP3     H2       HT       0.417000        1.0080           0
     68098 WT7      3113     TIP3     OH2      OT      -0.834000       15.9994           0
     68099 WT7      3113     TIP3     H1       HT       0.417000        1.0080           0
     68100 WT7      3113     TIP3     H2       HT       0.417000        1.0080           0
     68101 WT7      3115     TIP3     OH2      OT      -0.834000       15.9994           0
     68102 WT7      3115     TIP3     H1       HT       0.417000        1.0080           0
     68103 WT7      3115     TIP3     H2       HT       0.417000        1.0080           0
     68104 WT7      3117     TIP3     OH2      OT      -0.834000       15.9994           0
     68105 WT7      3117     TIP3     H1       HT       0.417000        1.0080           0
     68106 WT7      3117     TIP3     H2       HT       0.417000        1.0080           0
     68107 WT7      3121     TIP3     OH2      OT      -0.834000       15.9994           0
     68108 WT7      3121     TIP3     H1       HT       0.417000        1.0080           0
     68109 WT7      3121     TIP3     H2       HT       0.417000        1.0080           0
     68110 WT7      3124     TIP3     OH2      OT      -0.834000       15.9994           0
     68111 WT7      3124     TIP3     H1       HT       0.417000        1.0080           0
     68112 WT7      3124     TIP3     H2       HT       0.417000        1.0080           0
     68113 WT7      3125     TIP3     OH2      OT      -0.834000       15.9994           0
     68114 WT7      3125     TIP3     H1       HT       0.417000        1.0080           0
     68115 WT7      3125     TIP3     H2       HT       0.417000        1.0080           0
     68116 WT7      3126     TIP3     OH2      OT      -0.834000       15.9994           0
     68117 WT7      3126     TIP3     H1       HT       0.417000        1.0080           0
     68118 WT7      3126     TIP3     H2       HT       0.417000        1.0080           0
     68119 WT7      3131     TIP3     OH2      OT      -0.834000       15.9994           0
     68120 WT7      3131     TIP3     H1       HT       0.417000        1.0080           0
     68121 WT7      3131     TIP3     H2       HT       0.417000        1.0080           0
     68122 WT7      3132     TIP3     OH2      OT      -0.834000       15.9994           0
     68123 WT7      3132     TIP3     H1       HT       0.417000        1.0080           0
     68124 WT7      3132     TIP3     H2       HT       0.417000        1.0080           0
     68125 WT7      3134     TIP3     OH2      OT      -0.834000       15.9994           0
     68126 WT7      3134     TIP3     H1       HT       0.417000        1.0080           0
     68127 WT7      3134     TIP3     H2       HT       0.417000        1.0080           0
     68128 WT7      3136     TIP3     OH2      OT      -0.834000       15.9994           0
     68129 WT7      3136     TIP3     H1       HT       0.417000        1.0080           0
     68130 WT7      3136     TIP3     H2       HT       0.417000        1.0080           0
     68131 WT7      3139     TIP3     OH2      OT      -0.834000       15.9994           0
     68132 WT7      3139     TIP3     H1       HT       0.417000        1.0080           0
     68133 WT7      3139     TIP3     H2       HT       0.417000        1.0080           0
     68134 WT7      3140     TIP3     OH2      OT      -0.834000       15.9994           0
     68135 WT7      3140     TIP3     H1       HT       0.417000        1.0080           0
     68136 WT7      3140     TIP3     H2       HT       0.417000        1.0080           0
     68137 WT7      3143     TIP3     OH2      OT      -0.834000       15.9994           0
     68138 WT7      3143     TIP3     H1       HT       0.417000        1.0080           0
     68139 WT7      3143     TIP3     H2       HT       0.417000        1.0080           0
     68140 WT7      3147     TIP3     OH2      OT      -0.834000       15.9994           0
     68141 WT7      3147     TIP3     H1       HT       0.417000        1.0080           0
     68142 WT7      3147     TIP3     H2       HT       0.417000        1.0080           0
     68143 WT7      3148     TIP3     OH2      OT      -0.834000       15.9994           0
     68144 WT7      3148     TIP3     H1       HT       0.417000        1.0080           0
     68145 WT7      3148     TIP3     H2       HT       0.417000        1.0080           0
     68146 WT7      3150     TIP3     OH2      OT      -0.834000       15.9994           0
     68147 WT7      3150     TIP3     H1       HT       0.417000        1.0080           0
     68148 WT7      3150     TIP3     H2       HT       0.417000        1.0080           0
     68149 WT7      3152     TIP3     OH2      OT      -0.834000       15.9994           0
     68150 WT7      3152     TIP3     H1       HT       0.417000        1.0080           0
     68151 WT7      3152     TIP3     H2       HT       0.417000        1.0080           0
     68152 WT7      3158     TIP3     OH2      OT      -0.834000       15.9994           0
     68153 WT7      3158     TIP3     H1       HT       0.417000        1.0080           0
     68154 WT7      3158     TIP3     H2       HT       0.417000        1.0080           0
     68155 WT7      3161     TIP3     OH2      OT      -0.834000       15.9994           0
     68156 WT7      3161     TIP3     H1       HT       0.417000        1.0080           0
     68157 WT7      3161     TIP3     H2       HT       0.417000        1.0080           0
     68158 WT7      3164     TIP3     OH2      OT      -0.834000       15.9994           0
     68159 WT7      3164     TIP3     H1       HT       0.417000        1.0080           0
     68160 WT7      3164     TIP3     H2       HT       0.417000        1.0080           0
     68161 WT7      3167     TIP3     OH2      OT      -0.834000       15.9994           0
     68162 WT7      3167     TIP3     H1       HT       0.417000        1.0080           0
     68163 WT7      3167     TIP3     H2       HT       0.417000        1.0080           0
     68164 WT7      3168     TIP3     OH2      OT      -0.834000       15.9994           0
     68165 WT7      3168     TIP3     H1       HT       0.417000        1.0080           0
     68166 WT7      3168     TIP3     H2       HT       0.417000        1.0080           0
     68167 WT7      3173     TIP3     OH2      OT      -0.834000       15.9994           0
     68168 WT7      3173     TIP3     H1       HT       0.417000        1.0080           0
     68169 WT7      3173     TIP3     H2       HT       0.417000        1.0080           0
     68170 WT7      3177     TIP3     OH2      OT      -0.834000       15.9994           0
     68171 WT7      3177     TIP3     H1       HT       0.417000        1.0080           0
     68172 WT7      3177     TIP3     H2       HT       0.417000        1.0080           0
     68173 WT7      3181     TIP3     OH2      OT      -0.834000       15.9994           0
     68174 WT7      3181     TIP3     H1       HT       0.417000        1.0080           0
     68175 WT7      3181     TIP3     H2       HT       0.417000        1.0080           0
     68176 WT7      3183     TIP3     OH2      OT      -0.834000       15.9994           0
     68177 WT7      3183     TIP3     H1       HT       0.417000        1.0080           0
     68178 WT7      3183     TIP3     H2       HT       0.417000        1.0080           0
     68179 WT7      3184     TIP3     OH2      OT      -0.834000       15.9994           0
     68180 WT7      3184     TIP3     H1       HT       0.417000        1.0080           0
     68181 WT7      3184     TIP3     H2       HT       0.417000        1.0080           0
     68182 WT7      3185     TIP3     OH2      OT      -0.834000       15.9994           0
     68183 WT7      3185     TIP3     H1       HT       0.417000        1.0080           0
     68184 WT7      3185     TIP3     H2       HT       0.417000        1.0080           0
     68185 WT7      3189     TIP3     OH2      OT      -0.834000       15.9994           0
     68186 WT7      3189     TIP3     H1       HT       0.417000        1.0080           0
     68187 WT7      3189     TIP3     H2       HT       0.417000        1.0080           0
     68188 WT7      3191     TIP3     OH2      OT      -0.834000       15.9994           0
     68189 WT7      3191     TIP3     H1       HT       0.417000        1.0080           0
     68190 WT7      3191     TIP3     H2       HT       0.417000        1.0080           0
     68191 WT7      3192     TIP3     OH2      OT      -0.834000       15.9994           0
     68192 WT7      3192     TIP3     H1       HT       0.417000        1.0080           0
     68193 WT7      3192     TIP3     H2       HT       0.417000        1.0080           0
     68194 WT7      3196     TIP3     OH2      OT      -0.834000       15.9994           0
     68195 WT7      3196     TIP3     H1       HT       0.417000        1.0080           0
     68196 WT7      3196     TIP3     H2       HT       0.417000        1.0080           0
     68197 WT7      3198     TIP3     OH2      OT      -0.834000       15.9994           0
     68198 WT7      3198     TIP3     H1       HT       0.417000        1.0080           0
     68199 WT7      3198     TIP3     H2       HT       0.417000        1.0080           0
     68200 WT7      3206     TIP3     OH2      OT      -0.834000       15.9994           0
     68201 WT7      3206     TIP3     H1       HT       0.417000        1.0080           0
     68202 WT7      3206     TIP3     H2       HT       0.417000        1.0080           0
     68203 WT7      3210     TIP3     OH2      OT      -0.834000       15.9994           0
     68204 WT7      3210     TIP3     H1       HT       0.417000        1.0080           0
     68205 WT7      3210     TIP3     H2       HT       0.417000        1.0080           0
     68206 WT7      3215     TIP3     OH2      OT      -0.834000       15.9994           0
     68207 WT7      3215     TIP3     H1       HT       0.417000        1.0080           0
     68208 WT7      3215     TIP3     H2       HT       0.417000        1.0080           0
     68209 WT7      3218     TIP3     OH2      OT      -0.834000       15.9994           0
     68210 WT7      3218     TIP3     H1       HT       0.417000        1.0080           0
     68211 WT7      3218     TIP3     H2       HT       0.417000        1.0080           0
     68212 WT7      3219     TIP3     OH2      OT      -0.834000       15.9994           0
     68213 WT7      3219     TIP3     H1       HT       0.417000        1.0080           0
     68214 WT7      3219     TIP3     H2       HT       0.417000        1.0080           0
     68215 WT7      3221     TIP3     OH2      OT      -0.834000       15.9994           0
     68216 WT7      3221     TIP3     H1       HT       0.417000        1.0080           0
     68217 WT7      3221     TIP3     H2       HT       0.417000        1.0080           0
     68218 WT7      3223     TIP3     OH2      OT      -0.834000       15.9994           0
     68219 WT7      3223     TIP3     H1       HT       0.417000        1.0080           0
     68220 WT7      3223     TIP3     H2       HT       0.417000        1.0080           0
     68221 WT7      3224     TIP3     OH2      OT      -0.834000       15.9994           0
     68222 WT7      3224     TIP3     H1       HT       0.417000        1.0080           0
     68223 WT7      3224     TIP3     H2       HT       0.417000        1.0080           0
     68224 WT7      3227     TIP3     OH2      OT      -0.834000       15.9994           0
     68225 WT7      3227     TIP3     H1       HT       0.417000        1.0080           0
     68226 WT7      3227     TIP3     H2       HT       0.417000        1.0080           0
     68227 WT7      3232     TIP3     OH2      OT      -0.834000       15.9994           0
     68228 WT7      3232     TIP3     H1       HT       0.417000        1.0080           0
     68229 WT7      3232     TIP3     H2       HT       0.417000        1.0080           0
     68230 WT7      3234     TIP3     OH2      OT      -0.834000       15.9994           0
     68231 WT7      3234     TIP3     H1       HT       0.417000        1.0080           0
     68232 WT7      3234     TIP3     H2       HT       0.417000        1.0080           0
     68233 WT7      3237     TIP3     OH2      OT      -0.834000       15.9994           0
     68234 WT7      3237     TIP3     H1       HT       0.417000        1.0080           0
     68235 WT7      3237     TIP3     H2       HT       0.417000        1.0080           0
     68236 WT7      3242     TIP3     OH2      OT      -0.834000       15.9994           0
     68237 WT7      3242     TIP3     H1       HT       0.417000        1.0080           0
     68238 WT7      3242     TIP3     H2       HT       0.417000        1.0080           0
     68239 WT7      3244     TIP3     OH2      OT      -0.834000       15.9994           0
     68240 WT7      3244     TIP3     H1       HT       0.417000        1.0080           0
     68241 WT7      3244     TIP3     H2       HT       0.417000        1.0080           0
     68242 WT7      3245     TIP3     OH2      OT      -0.834000       15.9994           0
     68243 WT7      3245     TIP3     H1       HT       0.417000        1.0080           0
     68244 WT7      3245     TIP3     H2       HT       0.417000        1.0080           0
     68245 WT7      3246     TIP3     OH2      OT      -0.834000       15.9994           0
     68246 WT7      3246     TIP3     H1       HT       0.417000        1.0080           0
     68247 WT7      3246     TIP3     H2       HT       0.417000        1.0080           0
     68248 WT7      3249     TIP3     OH2      OT      -0.834000       15.9994           0
     68249 WT7      3249     TIP3     H1       HT       0.417000        1.0080           0
     68250 WT7      3249     TIP3     H2       HT       0.417000        1.0080           0
     68251 WT7      3251     TIP3     OH2      OT      -0.834000       15.9994           0
     68252 WT7      3251     TIP3     H1       HT       0.417000        1.0080           0
     68253 WT7      3251     TIP3     H2       HT       0.417000        1.0080           0
     68254 WT7      3259     TIP3     OH2      OT      -0.834000       15.9994           0
     68255 WT7      3259     TIP3     H1       HT       0.417000        1.0080           0
     68256 WT7      3259     TIP3     H2       HT       0.417000        1.0080           0
     68257 WT7      3262     TIP3     OH2      OT      -0.834000       15.9994           0
     68258 WT7      3262     TIP3     H1       HT       0.417000        1.0080           0
     68259 WT7      3262     TIP3     H2       HT       0.417000        1.0080           0
     68260 WT7      3263     TIP3     OH2      OT      -0.834000       15.9994           0
     68261 WT7      3263     TIP3     H1       HT       0.417000        1.0080           0
     68262 WT7      3263     TIP3     H2       HT       0.417000        1.0080           0
     68263 WT7      3269     TIP3     OH2      OT      -0.834000       15.9994           0
     68264 WT7      3269     TIP3     H1       HT       0.417000        1.0080           0
     68265 WT7      3269     TIP3     H2       HT       0.417000        1.0080           0
     68266 WT7      3271     TIP3     OH2      OT      -0.834000       15.9994           0
     68267 WT7      3271     TIP3     H1       HT       0.417000        1.0080           0
     68268 WT7      3271     TIP3     H2       HT       0.417000        1.0080           0
     68269 WT7      3293     TIP3     OH2      OT      -0.834000       15.9994           0
     68270 WT7      3293     TIP3     H1       HT       0.417000        1.0080           0
     68271 WT7      3293     TIP3     H2       HT       0.417000        1.0080           0
     68272 WT7      3303     TIP3     OH2      OT      -0.834000       15.9994           0
     68273 WT7      3303     TIP3     H1       HT       0.417000        1.0080           0
     68274 WT7      3303     TIP3     H2       HT       0.417000        1.0080           0
     68275 WT7      3304     TIP3     OH2      OT      -0.834000       15.9994           0
     68276 WT7      3304     TIP3     H1       HT       0.417000        1.0080           0
     68277 WT7      3304     TIP3     H2       HT       0.417000        1.0080           0
     68278 WT7      3305     TIP3     OH2      OT      -0.834000       15.9994           0
     68279 WT7      3305     TIP3     H1       HT       0.417000        1.0080           0
     68280 WT7      3305     TIP3     H2       HT       0.417000        1.0080           0
     68281 WT7      3331     TIP3     OH2      OT      -0.834000       15.9994           0
     68282 WT7      3331     TIP3     H1       HT       0.417000        1.0080           0
     68283 WT7      3331     TIP3     H2       HT       0.417000        1.0080           0
     68284 WT7      3426     TIP3     OH2      OT      -0.834000       15.9994           0
     68285 WT7      3426     TIP3     H1       HT       0.417000        1.0080           0
     68286 WT7      3426     TIP3     H2       HT       0.417000        1.0080           0
     68287 WT7      3434     TIP3     OH2      OT      -0.834000       15.9994           0
     68288 WT7      3434     TIP3     H1       HT       0.417000        1.0080           0
     68289 WT7      3434     TIP3     H2       HT       0.417000        1.0080           0
     68290 WT7      3440     TIP3     OH2      OT      -0.834000       15.9994           0
     68291 WT7      3440     TIP3     H1       HT       0.417000        1.0080           0
     68292 WT7      3440     TIP3     H2       HT       0.417000        1.0080           0
     68293 WT7      3442     TIP3     OH2      OT      -0.834000       15.9994           0
     68294 WT7      3442     TIP3     H1       HT       0.417000        1.0080           0
     68295 WT7      3442     TIP3     H2       HT       0.417000        1.0080           0
     68296 WT7      3447     TIP3     OH2      OT      -0.834000       15.9994           0
     68297 WT7      3447     TIP3     H1       HT       0.417000        1.0080           0
     68298 WT7      3447     TIP3     H2       HT       0.417000        1.0080           0
     68299 WT7      3496     TIP3     OH2      OT      -0.834000       15.9994           0
     68300 WT7      3496     TIP3     H1       HT       0.417000        1.0080           0
     68301 WT7      3496     TIP3     H2       HT       0.417000        1.0080           0
     68302 WT7      3497     TIP3     OH2      OT      -0.834000       15.9994           0
     68303 WT7      3497     TIP3     H1       HT       0.417000        1.0080           0
     68304 WT7      3497     TIP3     H2       HT       0.417000        1.0080           0
     68305 WT7      3504     TIP3     OH2      OT      -0.834000       15.9994           0
     68306 WT7      3504     TIP3     H1       HT       0.417000        1.0080           0
     68307 WT7      3504     TIP3     H2       HT       0.417000        1.0080           0
     68308 WT7      3507     TIP3     OH2      OT      -0.834000       15.9994           0
     68309 WT7      3507     TIP3     H1       HT       0.417000        1.0080           0
     68310 WT7      3507     TIP3     H2       HT       0.417000        1.0080           0
     68311 WT7      3517     TIP3     OH2      OT      -0.834000       15.9994           0
     68312 WT7      3517     TIP3     H1       HT       0.417000        1.0080           0
     68313 WT7      3517     TIP3     H2       HT       0.417000        1.0080           0
     68314 WT7      3521     TIP3     OH2      OT      -0.834000       15.9994           0
     68315 WT7      3521     TIP3     H1       HT       0.417000        1.0080           0
     68316 WT7      3521     TIP3     H2       HT       0.417000        1.0080           0
     68317 WT7      3526     TIP3     OH2      OT      -0.834000       15.9994           0
     68318 WT7      3526     TIP3     H1       HT       0.417000        1.0080           0
     68319 WT7      3526     TIP3     H2       HT       0.417000        1.0080           0
     68320 WT7      3527     TIP3     OH2      OT      -0.834000       15.9994           0
     68321 WT7      3527     TIP3     H1       HT       0.417000        1.0080           0
     68322 WT7      3527     TIP3     H2       HT       0.417000        1.0080           0
     68323 WT7      3534     TIP3     OH2      OT      -0.834000       15.9994           0
     68324 WT7      3534     TIP3     H1       HT       0.417000        1.0080           0
     68325 WT7      3534     TIP3     H2       HT       0.417000        1.0080           0
     68326 WT7      3537     TIP3     OH2      OT      -0.834000       15.9994           0
     68327 WT7      3537     TIP3     H1       HT       0.417000        1.0080           0
     68328 WT7      3537     TIP3     H2       HT       0.417000        1.0080           0
     68329 WT7      3543     TIP3     OH2      OT      -0.834000       15.9994           0
     68330 WT7      3543     TIP3     H1       HT       0.417000        1.0080           0
     68331 WT7      3543     TIP3     H2       HT       0.417000        1.0080           0
     68332 WT7      3544     TIP3     OH2      OT      -0.834000       15.9994           0
     68333 WT7      3544     TIP3     H1       HT       0.417000        1.0080           0
     68334 WT7      3544     TIP3     H2       HT       0.417000        1.0080           0
     68335 WT7      3545     TIP3     OH2      OT      -0.834000       15.9994           0
     68336 WT7      3545     TIP3     H1       HT       0.417000        1.0080           0
     68337 WT7      3545     TIP3     H2       HT       0.417000        1.0080           0
     68338 WT7      3546     TIP3     OH2      OT      -0.834000       15.9994           0
     68339 WT7      3546     TIP3     H1       HT       0.417000        1.0080           0
     68340 WT7      3546     TIP3     H2       HT       0.417000        1.0080           0
     68341 WT7      3548     TIP3     OH2      OT      -0.834000       15.9994           0
     68342 WT7      3548     TIP3     H1       HT       0.417000        1.0080           0
     68343 WT7      3548     TIP3     H2       HT       0.417000        1.0080           0
     68344 WT7      3554     TIP3     OH2      OT      -0.834000       15.9994           0
     68345 WT7      3554     TIP3     H1       HT       0.417000        1.0080           0
     68346 WT7      3554     TIP3     H2       HT       0.417000        1.0080           0
     68347 WT7      3556     TIP3     OH2      OT      -0.834000       15.9994           0
     68348 WT7      3556     TIP3     H1       HT       0.417000        1.0080           0
     68349 WT7      3556     TIP3     H2       HT       0.417000        1.0080           0
     68350 WT7      3557     TIP3     OH2      OT      -0.834000       15.9994           0
     68351 WT7      3557     TIP3     H1       HT       0.417000        1.0080           0
     68352 WT7      3557     TIP3     H2       HT       0.417000        1.0080           0
     68353 WT7      3560     TIP3     OH2      OT      -0.834000       15.9994           0
     68354 WT7      3560     TIP3     H1       HT       0.417000        1.0080           0
     68355 WT7      3560     TIP3     H2       HT       0.417000        1.0080           0
     68356 WT7      3566     TIP3     OH2      OT      -0.834000       15.9994           0
     68357 WT7      3566     TIP3     H1       HT       0.417000        1.0080           0
     68358 WT7      3566     TIP3     H2       HT       0.417000        1.0080           0
     68359 WT7      3571     TIP3     OH2      OT      -0.834000       15.9994           0
     68360 WT7      3571     TIP3     H1       HT       0.417000        1.0080           0
     68361 WT7      3571     TIP3     H2       HT       0.417000        1.0080           0
     68362 WT7      3575     TIP3     OH2      OT      -0.834000       15.9994           0
     68363 WT7      3575     TIP3     H1       HT       0.417000        1.0080           0
     68364 WT7      3575     TIP3     H2       HT       0.417000        1.0080           0
     68365 WT7      3580     TIP3     OH2      OT      -0.834000       15.9994           0
     68366 WT7      3580     TIP3     H1       HT       0.417000        1.0080           0
     68367 WT7      3580     TIP3     H2       HT       0.417000        1.0080           0
     68368 WT7      3586     TIP3     OH2      OT      -0.834000       15.9994           0
     68369 WT7      3586     TIP3     H1       HT       0.417000        1.0080           0
     68370 WT7      3586     TIP3     H2       HT       0.417000        1.0080           0
     68371 WT7      3587     TIP3     OH2      OT      -0.834000       15.9994           0
     68372 WT7      3587     TIP3     H1       HT       0.417000        1.0080           0
     68373 WT7      3587     TIP3     H2       HT       0.417000        1.0080           0
     68374 WT7      3589     TIP3     OH2      OT      -0.834000       15.9994           0
     68375 WT7      3589     TIP3     H1       HT       0.417000        1.0080           0
     68376 WT7      3589     TIP3     H2       HT       0.417000        1.0080           0
     68377 WT7      3596     TIP3     OH2      OT      -0.834000       15.9994           0
     68378 WT7      3596     TIP3     H1       HT       0.417000        1.0080           0
     68379 WT7      3596     TIP3     H2       HT       0.417000        1.0080           0
     68380 WT7      3597     TIP3     OH2      OT      -0.834000       15.9994           0
     68381 WT7      3597     TIP3     H1       HT       0.417000        1.0080           0
     68382 WT7      3597     TIP3     H2       HT       0.417000        1.0080           0
     68383 WT7      3603     TIP3     OH2      OT      -0.834000       15.9994           0
     68384 WT7      3603     TIP3     H1       HT       0.417000        1.0080           0
     68385 WT7      3603     TIP3     H2       HT       0.417000        1.0080           0
     68386 WT7      3606     TIP3     OH2      OT      -0.834000       15.9994           0
     68387 WT7      3606     TIP3     H1       HT       0.417000        1.0080           0
     68388 WT7      3606     TIP3     H2       HT       0.417000        1.0080           0
     68389 WT7      3607     TIP3     OH2      OT      -0.834000       15.9994           0
     68390 WT7      3607     TIP3     H1       HT       0.417000        1.0080           0
     68391 WT7      3607     TIP3     H2       HT       0.417000        1.0080           0
     68392 WT7      3608     TIP3     OH2      OT      -0.834000       15.9994           0
     68393 WT7      3608     TIP3     H1       HT       0.417000        1.0080           0
     68394 WT7      3608     TIP3     H2       HT       0.417000        1.0080           0
     68395 WT7      3609     TIP3     OH2      OT      -0.834000       15.9994           0
     68396 WT7      3609     TIP3     H1       HT       0.417000        1.0080           0
     68397 WT7      3609     TIP3     H2       HT       0.417000        1.0080           0
     68398 WT7      3613     TIP3     OH2      OT      -0.834000       15.9994           0
     68399 WT7      3613     TIP3     H1       HT       0.417000        1.0080           0
     68400 WT7      3613     TIP3     H2       HT       0.417000        1.0080           0
     68401 WT7      3614     TIP3     OH2      OT      -0.834000       15.9994           0
     68402 WT7      3614     TIP3     H1       HT       0.417000        1.0080           0
     68403 WT7      3614     TIP3     H2       HT       0.417000        1.0080           0
     68404 WT7      3618     TIP3     OH2      OT      -0.834000       15.9994           0
     68405 WT7      3618     TIP3     H1       HT       0.417000        1.0080           0
     68406 WT7      3618     TIP3     H2       HT       0.417000        1.0080           0
     68407 WT7      3619     TIP3     OH2      OT      -0.834000       15.9994           0
     68408 WT7      3619     TIP3     H1       HT       0.417000        1.0080           0
     68409 WT7      3619     TIP3     H2       HT       0.417000        1.0080           0
     68410 WT7      3620     TIP3     OH2      OT      -0.834000       15.9994           0
     68411 WT7      3620     TIP3     H1       HT       0.417000        1.0080           0
     68412 WT7      3620     TIP3     H2       HT       0.417000        1.0080           0
     68413 WT7      3626     TIP3     OH2      OT      -0.834000       15.9994           0
     68414 WT7      3626     TIP3     H1       HT       0.417000        1.0080           0
     68415 WT7      3626     TIP3     H2       HT       0.417000        1.0080           0
     68416 WT7      3627     TIP3     OH2      OT      -0.834000       15.9994           0
     68417 WT7      3627     TIP3     H1       HT       0.417000        1.0080           0
     68418 WT7      3627     TIP3     H2       HT       0.417000        1.0080           0
     68419 WT7      3628     TIP3     OH2      OT      -0.834000       15.9994           0
     68420 WT7      3628     TIP3     H1       HT       0.417000        1.0080           0
     68421 WT7      3628     TIP3     H2       HT       0.417000        1.0080           0
     68422 WT7      3629     TIP3     OH2      OT      -0.834000       15.9994           0
     68423 WT7      3629     TIP3     H1       HT       0.417000        1.0080           0
     68424 WT7      3629     TIP3     H2       HT       0.417000        1.0080           0
     68425 WT7      3630     TIP3     OH2      OT      -0.834000       15.9994           0
     68426 WT7      3630     TIP3     H1       HT       0.417000        1.0080           0
     68427 WT7      3630     TIP3     H2       HT       0.417000        1.0080           0
     68428 WT7      3632     TIP3     OH2      OT      -0.834000       15.9994           0
     68429 WT7      3632     TIP3     H1       HT       0.417000        1.0080           0
     68430 WT7      3632     TIP3     H2       HT       0.417000        1.0080           0
     68431 WT7      3635     TIP3     OH2      OT      -0.834000       15.9994           0
     68432 WT7      3635     TIP3     H1       HT       0.417000        1.0080           0
     68433 WT7      3635     TIP3     H2       HT       0.417000        1.0080           0
     68434 WT7      3640     TIP3     OH2      OT      -0.834000       15.9994           0
     68435 WT7      3640     TIP3     H1       HT       0.417000        1.0080           0
     68436 WT7      3640     TIP3     H2       HT       0.417000        1.0080           0
     68437 WT7      3641     TIP3     OH2      OT      -0.834000       15.9994           0
     68438 WT7      3641     TIP3     H1       HT       0.417000        1.0080           0
     68439 WT7      3641     TIP3     H2       HT       0.417000        1.0080           0
     68440 WT7      3647     TIP3     OH2      OT      -0.834000       15.9994           0
     68441 WT7      3647     TIP3     H1       HT       0.417000        1.0080           0
     68442 WT7      3647     TIP3     H2       HT       0.417000        1.0080           0
     68443 WT7      3650     TIP3     OH2      OT      -0.834000       15.9994           0
     68444 WT7      3650     TIP3     H1       HT       0.417000        1.0080           0
     68445 WT7      3650     TIP3     H2       HT       0.417000        1.0080           0
     68446 WT7      3651     TIP3     OH2      OT      -0.834000       15.9994           0
     68447 WT7      3651     TIP3     H1       HT       0.417000        1.0080           0
     68448 WT7      3651     TIP3     H2       HT       0.417000        1.0080           0
     68449 WT7      3652     TIP3     OH2      OT      -0.834000       15.9994           0
     68450 WT7      3652     TIP3     H1       HT       0.417000        1.0080           0
     68451 WT7      3652     TIP3     H2       HT       0.417000        1.0080           0
     68452 WT7      3653     TIP3     OH2      OT      -0.834000       15.9994           0
     68453 WT7      3653     TIP3     H1       HT       0.417000        1.0080           0
     68454 WT7      3653     TIP3     H2       HT       0.417000        1.0080           0
     68455 WT7      3654     TIP3     OH2      OT      -0.834000       15.9994           0
     68456 WT7      3654     TIP3     H1       HT       0.417000        1.0080           0
     68457 WT7      3654     TIP3     H2       HT       0.417000        1.0080           0
     68458 WT7      3655     TIP3     OH2      OT      -0.834000       15.9994           0
     68459 WT7      3655     TIP3     H1       HT       0.417000        1.0080           0
     68460 WT7      3655     TIP3     H2       HT       0.417000        1.0080           0
     68461 WT7      3656     TIP3     OH2      OT      -0.834000       15.9994           0
     68462 WT7      3656     TIP3     H1       HT       0.417000        1.0080           0
     68463 WT7      3656     TIP3     H2       HT       0.417000        1.0080           0
     68464 WT7      3660     TIP3     OH2      OT      -0.834000       15.9994           0
     68465 WT7      3660     TIP3     H1       HT       0.417000        1.0080           0
     68466 WT7      3660     TIP3     H2       HT       0.417000        1.0080           0
     68467 WT7      3661     TIP3     OH2      OT      -0.834000       15.9994           0
     68468 WT7      3661     TIP3     H1       HT       0.417000        1.0080           0
     68469 WT7      3661     TIP3     H2       HT       0.417000        1.0080           0
     68470 WT7      3662     TIP3     OH2      OT      -0.834000       15.9994           0
     68471 WT7      3662     TIP3     H1       HT       0.417000        1.0080           0
     68472 WT7      3662     TIP3     H2       HT       0.417000        1.0080           0
     68473 WT7      3665     TIP3     OH2      OT      -0.834000       15.9994           0
     68474 WT7      3665     TIP3     H1       HT       0.417000        1.0080           0
     68475 WT7      3665     TIP3     H2       HT       0.417000        1.0080           0
     68476 WT7      3666     TIP3     OH2      OT      -0.834000       15.9994           0
     68477 WT7      3666     TIP3     H1       HT       0.417000        1.0080           0
     68478 WT7      3666     TIP3     H2       HT       0.417000        1.0080           0
     68479 WT7      3671     TIP3     OH2      OT      -0.834000       15.9994           0
     68480 WT7      3671     TIP3     H1       HT       0.417000        1.0080           0
     68481 WT7      3671     TIP3     H2       HT       0.417000        1.0080           0
     68482 WT7      3673     TIP3     OH2      OT      -0.834000       15.9994           0
     68483 WT7      3673     TIP3     H1       HT       0.417000        1.0080           0
     68484 WT7      3673     TIP3     H2       HT       0.417000        1.0080           0
     68485 WT7      3689     TIP3     OH2      OT      -0.834000       15.9994           0
     68486 WT7      3689     TIP3     H1       HT       0.417000        1.0080           0
     68487 WT7      3689     TIP3     H2       HT       0.417000        1.0080           0
     68488 WT7      3690     TIP3     OH2      OT      -0.834000       15.9994           0
     68489 WT7      3690     TIP3     H1       HT       0.417000        1.0080           0
     68490 WT7      3690     TIP3     H2       HT       0.417000        1.0080           0
     68491 WT7      3695     TIP3     OH2      OT      -0.834000       15.9994           0
     68492 WT7      3695     TIP3     H1       HT       0.417000        1.0080           0
     68493 WT7      3695     TIP3     H2       HT       0.417000        1.0080           0
     68494 WT7      3696     TIP3     OH2      OT      -0.834000       15.9994           0
     68495 WT7      3696     TIP3     H1       HT       0.417000        1.0080           0
     68496 WT7      3696     TIP3     H2       HT       0.417000        1.0080           0
     68497 WT7      3704     TIP3     OH2      OT      -0.834000       15.9994           0
     68498 WT7      3704     TIP3     H1       HT       0.417000        1.0080           0
     68499 WT7      3704     TIP3     H2       HT       0.417000        1.0080           0
     68500 WT7      3736     TIP3     OH2      OT      -0.834000       15.9994           0
     68501 WT7      3736     TIP3     H1       HT       0.417000        1.0080           0
     68502 WT7      3736     TIP3     H2       HT       0.417000        1.0080           0
     68503 WT7      3750     TIP3     OH2      OT      -0.834000       15.9994           0
     68504 WT7      3750     TIP3     H1       HT       0.417000        1.0080           0
     68505 WT7      3750     TIP3     H2       HT       0.417000        1.0080           0
     68506 WT7      3787     TIP3     OH2      OT      -0.834000       15.9994           0
     68507 WT7      3787     TIP3     H1       HT       0.417000        1.0080           0
     68508 WT7      3787     TIP3     H2       HT       0.417000        1.0080           0
     68509 WT7      3834     TIP3     OH2      OT      -0.834000       15.9994           0
     68510 WT7      3834     TIP3     H1       HT       0.417000        1.0080           0
     68511 WT7      3834     TIP3     H2       HT       0.417000        1.0080           0
     68512 WT7      3906     TIP3     OH2      OT      -0.834000       15.9994           0
     68513 WT7      3906     TIP3     H1       HT       0.417000        1.0080           0
     68514 WT7      3906     TIP3     H2       HT       0.417000        1.0080           0
     68515 WT7      3919     TIP3     OH2      OT      -0.834000       15.9994           0
     68516 WT7      3919     TIP3     H1       HT       0.417000        1.0080           0
     68517 WT7      3919     TIP3     H2       HT       0.417000        1.0080           0
     68518 WT7      3924     TIP3     OH2      OT      -0.834000       15.9994           0
     68519 WT7      3924     TIP3     H1       HT       0.417000        1.0080           0
     68520 WT7      3924     TIP3     H2       HT       0.417000        1.0080           0
     68521 WT7      3925     TIP3     OH2      OT      -0.834000       15.9994           0
     68522 WT7      3925     TIP3     H1       HT       0.417000        1.0080           0
     68523 WT7      3925     TIP3     H2       HT       0.417000        1.0080           0
     68524 WT7      3933     TIP3     OH2      OT      -0.834000       15.9994           0
     68525 WT7      3933     TIP3     H1       HT       0.417000        1.0080           0
     68526 WT7      3933     TIP3     H2       HT       0.417000        1.0080           0
     68527 WT7      3935     TIP3     OH2      OT      -0.834000       15.9994           0
     68528 WT7      3935     TIP3     H1       HT       0.417000        1.0080           0
     68529 WT7      3935     TIP3     H2       HT       0.417000        1.0080           0
     68530 WT7      3943     TIP3     OH2      OT      -0.834000       15.9994           0
     68531 WT7      3943     TIP3     H1       HT       0.417000        1.0080           0
     68532 WT7      3943     TIP3     H2       HT       0.417000        1.0080           0
     68533 WT7      3950     TIP3     OH2      OT      -0.834000       15.9994           0
     68534 WT7      3950     TIP3     H1       HT       0.417000        1.0080           0
     68535 WT7      3950     TIP3     H2       HT       0.417000        1.0080           0
     68536 WT7      3951     TIP3     OH2      OT      -0.834000       15.9994           0
     68537 WT7      3951     TIP3     H1       HT       0.417000        1.0080           0
     68538 WT7      3951     TIP3     H2       HT       0.417000        1.0080           0
     68539 WT7      3964     TIP3     OH2      OT      -0.834000       15.9994           0
     68540 WT7      3964     TIP3     H1       HT       0.417000        1.0080           0
     68541 WT7      3964     TIP3     H2       HT       0.417000        1.0080           0
     68542 WT7      3968     TIP3     OH2      OT      -0.834000       15.9994           0
     68543 WT7      3968     TIP3     H1       HT       0.417000        1.0080           0
     68544 WT7      3968     TIP3     H2       HT       0.417000        1.0080           0
     68545 WT7      3976     TIP3     OH2      OT      -0.834000       15.9994           0
     68546 WT7      3976     TIP3     H1       HT       0.417000        1.0080           0
     68547 WT7      3976     TIP3     H2       HT       0.417000        1.0080           0
     68548 WT7      3977     TIP3     OH2      OT      -0.834000       15.9994           0
     68549 WT7      3977     TIP3     H1       HT       0.417000        1.0080           0
     68550 WT7      3977     TIP3     H2       HT       0.417000        1.0080           0
     68551 WT7      3985     TIP3     OH2      OT      -0.834000       15.9994           0
     68552 WT7      3985     TIP3     H1       HT       0.417000        1.0080           0
     68553 WT7      3985     TIP3     H2       HT       0.417000        1.0080           0
     68554 WT7      3989     TIP3     OH2      OT      -0.834000       15.9994           0
     68555 WT7      3989     TIP3     H1       HT       0.417000        1.0080           0
     68556 WT7      3989     TIP3     H2       HT       0.417000        1.0080           0
     68557 WT7      3990     TIP3     OH2      OT      -0.834000       15.9994           0
     68558 WT7      3990     TIP3     H1       HT       0.417000        1.0080           0
     68559 WT7      3990     TIP3     H2       HT       0.417000        1.0080           0
     68560 WT7      3991     TIP3     OH2      OT      -0.834000       15.9994           0
     68561 WT7      3991     TIP3     H1       HT       0.417000        1.0080           0
     68562 WT7      3991     TIP3     H2       HT       0.417000        1.0080           0
     68563 WT7      3995     TIP3     OH2      OT      -0.834000       15.9994           0
     68564 WT7      3995     TIP3     H1       HT       0.417000        1.0080           0
     68565 WT7      3995     TIP3     H2       HT       0.417000        1.0080           0
     68566 WT7      3996     TIP3     OH2      OT      -0.834000       15.9994           0
     68567 WT7      3996     TIP3     H1       HT       0.417000        1.0080           0
     68568 WT7      3996     TIP3     H2       HT       0.417000        1.0080           0
     68569 WT7      4009     TIP3     OH2      OT      -0.834000       15.9994           0
     68570 WT7      4009     TIP3     H1       HT       0.417000        1.0080           0
     68571 WT7      4009     TIP3     H2       HT       0.417000        1.0080           0
     68572 WT7      4012     TIP3     OH2      OT      -0.834000       15.9994           0
     68573 WT7      4012     TIP3     H1       HT       0.417000        1.0080           0
     68574 WT7      4012     TIP3     H2       HT       0.417000        1.0080           0
     68575 WT7      4013     TIP3     OH2      OT      -0.834000       15.9994           0
     68576 WT7      4013     TIP3     H1       HT       0.417000        1.0080           0
     68577 WT7      4013     TIP3     H2       HT       0.417000        1.0080           0
     68578 WT7      4017     TIP3     OH2      OT      -0.834000       15.9994           0
     68579 WT7      4017     TIP3     H1       HT       0.417000        1.0080           0
     68580 WT7      4017     TIP3     H2       HT       0.417000        1.0080           0
     68581 WT7      4019     TIP3     OH2      OT      -0.834000       15.9994           0
     68582 WT7      4019     TIP3     H1       HT       0.417000        1.0080           0
     68583 WT7      4019     TIP3     H2       HT       0.417000        1.0080           0
     68584 WT7      4020     TIP3     OH2      OT      -0.834000       15.9994           0
     68585 WT7      4020     TIP3     H1       HT       0.417000        1.0080           0
     68586 WT7      4020     TIP3     H2       HT       0.417000        1.0080           0
     68587 WT7      4027     TIP3     OH2      OT      -0.834000       15.9994           0
     68588 WT7      4027     TIP3     H1       HT       0.417000        1.0080           0
     68589 WT7      4027     TIP3     H2       HT       0.417000        1.0080           0
     68590 WT7      4036     TIP3     OH2      OT      -0.834000       15.9994           0
     68591 WT7      4036     TIP3     H1       HT       0.417000        1.0080           0
     68592 WT7      4036     TIP3     H2       HT       0.417000        1.0080           0
     68593 WT7      4037     TIP3     OH2      OT      -0.834000       15.9994           0
     68594 WT7      4037     TIP3     H1       HT       0.417000        1.0080           0
     68595 WT7      4037     TIP3     H2       HT       0.417000        1.0080           0
     68596 WT7      4039     TIP3     OH2      OT      -0.834000       15.9994           0
     68597 WT7      4039     TIP3     H1       HT       0.417000        1.0080           0
     68598 WT7      4039     TIP3     H2       HT       0.417000        1.0080           0
     68599 WT7      4044     TIP3     OH2      OT      -0.834000       15.9994           0
     68600 WT7      4044     TIP3     H1       HT       0.417000        1.0080           0
     68601 WT7      4044     TIP3     H2       HT       0.417000        1.0080           0
     68602 WT7      4045     TIP3     OH2      OT      -0.834000       15.9994           0
     68603 WT7      4045     TIP3     H1       HT       0.417000        1.0080           0
     68604 WT7      4045     TIP3     H2       HT       0.417000        1.0080           0
     68605 WT7      4065     TIP3     OH2      OT      -0.834000       15.9994           0
     68606 WT7      4065     TIP3     H1       HT       0.417000        1.0080           0
     68607 WT7      4065     TIP3     H2       HT       0.417000        1.0080           0
     68608 WT7      4074     TIP3     OH2      OT      -0.834000       15.9994           0
     68609 WT7      4074     TIP3     H1       HT       0.417000        1.0080           0
     68610 WT7      4074     TIP3     H2       HT       0.417000        1.0080           0
     68611 WT7      4077     TIP3     OH2      OT      -0.834000       15.9994           0
     68612 WT7      4077     TIP3     H1       HT       0.417000        1.0080           0
     68613 WT7      4077     TIP3     H2       HT       0.417000        1.0080           0
     68614 WT7      4079     TIP3     OH2      OT      -0.834000       15.9994           0
     68615 WT7      4079     TIP3     H1       HT       0.417000        1.0080           0
     68616 WT7      4079     TIP3     H2       HT       0.417000        1.0080           0
     68617 WT7      4081     TIP3     OH2      OT      -0.834000       15.9994           0
     68618 WT7      4081     TIP3     H1       HT       0.417000        1.0080           0
     68619 WT7      4081     TIP3     H2       HT       0.417000        1.0080           0
     68620 WT7      4085     TIP3     OH2      OT      -0.834000       15.9994           0
     68621 WT7      4085     TIP3     H1       HT       0.417000        1.0080           0
     68622 WT7      4085     TIP3     H2       HT       0.417000        1.0080           0
     68623 WT7      4087     TIP3     OH2      OT      -0.834000       15.9994           0
     68624 WT7      4087     TIP3     H1       HT       0.417000        1.0080           0
     68625 WT7      4087     TIP3     H2       HT       0.417000        1.0080           0
     68626 WT7      4104     TIP3     OH2      OT      -0.834000       15.9994           0
     68627 WT7      4104     TIP3     H1       HT       0.417000        1.0080           0
     68628 WT7      4104     TIP3     H2       HT       0.417000        1.0080           0
     68629 WT7      4117     TIP3     OH2      OT      -0.834000       15.9994           0
     68630 WT7      4117     TIP3     H1       HT       0.417000        1.0080           0
     68631 WT7      4117     TIP3     H2       HT       0.417000        1.0080           0
     68632 WT7      4118     TIP3     OH2      OT      -0.834000       15.9994           0
     68633 WT7      4118     TIP3     H1       HT       0.417000        1.0080           0
     68634 WT7      4118     TIP3     H2       HT       0.417000        1.0080           0
     68635 WT7      4133     TIP3     OH2      OT      -0.834000       15.9994           0
     68636 WT7      4133     TIP3     H1       HT       0.417000        1.0080           0
     68637 WT7      4133     TIP3     H2       HT       0.417000        1.0080           0
     68638 WT7      4141     TIP3     OH2      OT      -0.834000       15.9994           0
     68639 WT7      4141     TIP3     H1       HT       0.417000        1.0080           0
     68640 WT7      4141     TIP3     H2       HT       0.417000        1.0080           0
     68641 WT7      4152     TIP3     OH2      OT      -0.834000       15.9994           0
     68642 WT7      4152     TIP3     H1       HT       0.417000        1.0080           0
     68643 WT7      4152     TIP3     H2       HT       0.417000        1.0080           0
     68644 WT7      4160     TIP3     OH2      OT      -0.834000       15.9994           0
     68645 WT7      4160     TIP3     H1       HT       0.417000        1.0080           0
     68646 WT7      4160     TIP3     H2       HT       0.417000        1.0080           0
     68647 WT7      4163     TIP3     OH2      OT      -0.834000       15.9994           0
     68648 WT7      4163     TIP3     H1       HT       0.417000        1.0080           0
     68649 WT7      4163     TIP3     H2       HT       0.417000        1.0080           0
     68650 WT7      4278     TIP3     OH2      OT      -0.834000       15.9994           0
     68651 WT7      4278     TIP3     H1       HT       0.417000        1.0080           0
     68652 WT7      4278     TIP3     H2       HT       0.417000        1.0080           0
     68653 WT7      4319     TIP3     OH2      OT      -0.834000       15.9994           0
     68654 WT7      4319     TIP3     H1       HT       0.417000        1.0080           0
     68655 WT7      4319     TIP3     H2       HT       0.417000        1.0080           0
     68656 WT7      4323     TIP3     OH2      OT      -0.834000       15.9994           0
     68657 WT7      4323     TIP3     H1       HT       0.417000        1.0080           0
     68658 WT7      4323     TIP3     H2       HT       0.417000        1.0080           0
     68659 WT7      4347     TIP3     OH2      OT      -0.834000       15.9994           0
     68660 WT7      4347     TIP3     H1       HT       0.417000        1.0080           0
     68661 WT7      4347     TIP3     H2       HT       0.417000        1.0080           0
     68662 WT7      4356     TIP3     OH2      OT      -0.834000       15.9994           0
     68663 WT7      4356     TIP3     H1       HT       0.417000        1.0080           0
     68664 WT7      4356     TIP3     H2       HT       0.417000        1.0080           0
     68665 WT7      4380     TIP3     OH2      OT      -0.834000       15.9994           0
     68666 WT7      4380     TIP3     H1       HT       0.417000        1.0080           0
     68667 WT7      4380     TIP3     H2       HT       0.417000        1.0080           0
     68668 WT7      4382     TIP3     OH2      OT      -0.834000       15.9994           0
     68669 WT7      4382     TIP3     H1       HT       0.417000        1.0080           0
     68670 WT7      4382     TIP3     H2       HT       0.417000        1.0080           0
     68671 WT7      4394     TIP3     OH2      OT      -0.834000       15.9994           0
     68672 WT7      4394     TIP3     H1       HT       0.417000        1.0080           0
     68673 WT7      4394     TIP3     H2       HT       0.417000        1.0080           0
     68674 WT7      4401     TIP3     OH2      OT      -0.834000       15.9994           0
     68675 WT7      4401     TIP3     H1       HT       0.417000        1.0080           0
     68676 WT7      4401     TIP3     H2       HT       0.417000        1.0080           0
     68677 WT7      4405     TIP3     OH2      OT      -0.834000       15.9994           0
     68678 WT7      4405     TIP3     H1       HT       0.417000        1.0080           0
     68679 WT7      4405     TIP3     H2       HT       0.417000        1.0080           0
     68680 WT7      4407     TIP3     OH2      OT      -0.834000       15.9994           0
     68681 WT7      4407     TIP3     H1       HT       0.417000        1.0080           0
     68682 WT7      4407     TIP3     H2       HT       0.417000        1.0080           0
     68683 WT7      4409     TIP3     OH2      OT      -0.834000       15.9994           0
     68684 WT7      4409     TIP3     H1       HT       0.417000        1.0080           0
     68685 WT7      4409     TIP3     H2       HT       0.417000        1.0080           0
     68686 WT7      4428     TIP3     OH2      OT      -0.834000       15.9994           0
     68687 WT7      4428     TIP3     H1       HT       0.417000        1.0080           0
     68688 WT7      4428     TIP3     H2       HT       0.417000        1.0080           0
     68689 WT7      4429     TIP3     OH2      OT      -0.834000       15.9994           0
     68690 WT7      4429     TIP3     H1       HT       0.417000        1.0080           0
     68691 WT7      4429     TIP3     H2       HT       0.417000        1.0080           0
     68692 WT7      4469     TIP3     OH2      OT      -0.834000       15.9994           0
     68693 WT7      4469     TIP3     H1       HT       0.417000        1.0080           0
     68694 WT7      4469     TIP3     H2       HT       0.417000        1.0080           0
     68695 WT7      4480     TIP3     OH2      OT      -0.834000       15.9994           0
     68696 WT7      4480     TIP3     H1       HT       0.417000        1.0080           0
     68697 WT7      4480     TIP3     H2       HT       0.417000        1.0080           0
     68698 WT7      4485     TIP3     OH2      OT      -0.834000       15.9994           0
     68699 WT7      4485     TIP3     H1       HT       0.417000        1.0080           0
     68700 WT7      4485     TIP3     H2       HT       0.417000        1.0080           0
     68701 WT7      4489     TIP3     OH2      OT      -0.834000       15.9994           0
     68702 WT7      4489     TIP3     H1       HT       0.417000        1.0080           0
     68703 WT7      4489     TIP3     H2       HT       0.417000        1.0080           0
     68704 WT7      4498     TIP3     OH2      OT      -0.834000       15.9994           0
     68705 WT7      4498     TIP3     H1       HT       0.417000        1.0080           0
     68706 WT7      4498     TIP3     H2       HT       0.417000        1.0080           0
     68707 WT7      4501     TIP3     OH2      OT      -0.834000       15.9994           0
     68708 WT7      4501     TIP3     H1       HT       0.417000        1.0080           0
     68709 WT7      4501     TIP3     H2       HT       0.417000        1.0080           0
     68710 WT7      4508     TIP3     OH2      OT      -0.834000       15.9994           0
     68711 WT7      4508     TIP3     H1       HT       0.417000        1.0080           0
     68712 WT7      4508     TIP3     H2       HT       0.417000        1.0080           0
     68713 WT7      4515     TIP3     OH2      OT      -0.834000       15.9994           0
     68714 WT7      4515     TIP3     H1       HT       0.417000        1.0080           0
     68715 WT7      4515     TIP3     H2       HT       0.417000        1.0080           0
     68716 WT7      4519     TIP3     OH2      OT      -0.834000       15.9994           0
     68717 WT7      4519     TIP3     H1       HT       0.417000        1.0080           0
     68718 WT7      4519     TIP3     H2       HT       0.417000        1.0080           0
     68719 WT7      4523     TIP3     OH2      OT      -0.834000       15.9994           0
     68720 WT7      4523     TIP3     H1       HT       0.417000        1.0080           0
     68721 WT7      4523     TIP3     H2       HT       0.417000        1.0080           0
     68722 WT7      4530     TIP3     OH2      OT      -0.834000       15.9994           0
     68723 WT7      4530     TIP3     H1       HT       0.417000        1.0080           0
     68724 WT7      4530     TIP3     H2       HT       0.417000        1.0080           0
     68725 WT7      4537     TIP3     OH2      OT      -0.834000       15.9994           0
     68726 WT7      4537     TIP3     H1       HT       0.417000        1.0080           0
     68727 WT7      4537     TIP3     H2       HT       0.417000        1.0080           0
     68728 WT7      4543     TIP3     OH2      OT      -0.834000       15.9994           0
     68729 WT7      4543     TIP3     H1       HT       0.417000        1.0080           0
     68730 WT7      4543     TIP3     H2       HT       0.417000        1.0080           0
     68731 WT7      4571     TIP3     OH2      OT      -0.834000       15.9994           0
     68732 WT7      4571     TIP3     H1       HT       0.417000        1.0080           0
     68733 WT7      4571     TIP3     H2       HT       0.417000        1.0080           0
     68734 WT7      4626     TIP3     OH2      OT      -0.834000       15.9994           0
     68735 WT7      4626     TIP3     H1       HT       0.417000        1.0080           0
     68736 WT7      4626     TIP3     H2       HT       0.417000        1.0080           0
     68737 WT7      4798     TIP3     OH2      OT      -0.834000       15.9994           0
     68738 WT7      4798     TIP3     H1       HT       0.417000        1.0080           0
     68739 WT7      4798     TIP3     H2       HT       0.417000        1.0080           0
     68740 WT7      4809     TIP3     OH2      OT      -0.834000       15.9994           0
     68741 WT7      4809     TIP3     H1       HT       0.417000        1.0080           0
     68742 WT7      4809     TIP3     H2       HT       0.417000        1.0080           0
     68743 WT7      4837     TIP3     OH2      OT      -0.834000       15.9994           0
     68744 WT7      4837     TIP3     H1       HT       0.417000        1.0080           0
     68745 WT7      4837     TIP3     H2       HT       0.417000        1.0080           0
     68746 WT7      4849     TIP3     OH2      OT      -0.834000       15.9994           0
     68747 WT7      4849     TIP3     H1       HT       0.417000        1.0080           0
     68748 WT7      4849     TIP3     H2       HT       0.417000        1.0080           0
     68749 WT7      4856     TIP3     OH2      OT      -0.834000       15.9994           0
     68750 WT7      4856     TIP3     H1       HT       0.417000        1.0080           0
     68751 WT7      4856     TIP3     H2       HT       0.417000        1.0080           0
     68752 WT7      4857     TIP3     OH2      OT      -0.834000       15.9994           0
     68753 WT7      4857     TIP3     H1       HT       0.417000        1.0080           0
     68754 WT7      4857     TIP3     H2       HT       0.417000        1.0080           0
     68755 WT7      4869     TIP3     OH2      OT      -0.834000       15.9994           0
     68756 WT7      4869     TIP3     H1       HT       0.417000        1.0080           0
     68757 WT7      4869     TIP3     H2       HT       0.417000        1.0080           0
     68758 WT7      4887     TIP3     OH2      OT      -0.834000       15.9994           0
     68759 WT7      4887     TIP3     H1       HT       0.417000        1.0080           0
     68760 WT7      4887     TIP3     H2       HT       0.417000        1.0080           0
     68761 WT7      4901     TIP3     OH2      OT      -0.834000       15.9994           0
     68762 WT7      4901     TIP3     H1       HT       0.417000        1.0080           0
     68763 WT7      4901     TIP3     H2       HT       0.417000        1.0080           0
     68764 WT7      4971     TIP3     OH2      OT      -0.834000       15.9994           0
     68765 WT7      4971     TIP3     H1       HT       0.417000        1.0080           0
     68766 WT7      4971     TIP3     H2       HT       0.417000        1.0080           0
     68767 WT7      4981     TIP3     OH2      OT      -0.834000       15.9994           0
     68768 WT7      4981     TIP3     H1       HT       0.417000        1.0080           0
     68769 WT7      4981     TIP3     H2       HT       0.417000        1.0080           0
     68770 WT7      4992     TIP3     OH2      OT      -0.834000       15.9994           0
     68771 WT7      4992     TIP3     H1       HT       0.417000        1.0080           0
     68772 WT7      4992     TIP3     H2       HT       0.417000        1.0080           0
     68773 WT7      5013     TIP3     OH2      OT      -0.834000       15.9994           0
     68774 WT7      5013     TIP3     H1       HT       0.417000        1.0080           0
     68775 WT7      5013     TIP3     H2       HT       0.417000        1.0080           0
     68776 WT7      5039     TIP3     OH2      OT      -0.834000       15.9994           0
     68777 WT7      5039     TIP3     H1       HT       0.417000        1.0080           0
     68778 WT7      5039     TIP3     H2       HT       0.417000        1.0080           0
     68779 WT7      5266     TIP3     OH2      OT      -0.834000       15.9994           0
     68780 WT7      5266     TIP3     H1       HT       0.417000        1.0080           0
     68781 WT7      5266     TIP3     H2       HT       0.417000        1.0080           0
     68782 WT7      5284     TIP3     OH2      OT      -0.834000       15.9994           0
     68783 WT7      5284     TIP3     H1       HT       0.417000        1.0080           0
     68784 WT7      5284     TIP3     H2       HT       0.417000        1.0080           0
     68785 WT7      5286     TIP3     OH2      OT      -0.834000       15.9994           0
     68786 WT7      5286     TIP3     H1       HT       0.417000        1.0080           0
     68787 WT7      5286     TIP3     H2       HT       0.417000        1.0080           0
     68788 WT7      5289     TIP3     OH2      OT      -0.834000       15.9994           0
     68789 WT7      5289     TIP3     H1       HT       0.417000        1.0080           0
     68790 WT7      5289     TIP3     H2       HT       0.417000        1.0080           0
     68791 WT7      5320     TIP3     OH2      OT      -0.834000       15.9994           0
     68792 WT7      5320     TIP3     H1       HT       0.417000        1.0080           0
     68793 WT7      5320     TIP3     H2       HT       0.417000        1.0080           0
     68794 WT7      5341     TIP3     OH2      OT      -0.834000       15.9994           0
     68795 WT7      5341     TIP3     H1       HT       0.417000        1.0080           0
     68796 WT7      5341     TIP3     H2       HT       0.417000        1.0080           0
     68797 WT7      5356     TIP3     OH2      OT      -0.834000       15.9994           0
     68798 WT7      5356     TIP3     H1       HT       0.417000        1.0080           0
     68799 WT7      5356     TIP3     H2       HT       0.417000        1.0080           0
     68800 WT7      5393     TIP3     OH2      OT      -0.834000       15.9994           0
     68801 WT7      5393     TIP3     H1       HT       0.417000        1.0080           0
     68802 WT7      5393     TIP3     H2       HT       0.417000        1.0080           0
     68803 WT7      5472     TIP3     OH2      OT      -0.834000       15.9994           0
     68804 WT7      5472     TIP3     H1       HT       0.417000        1.0080           0
     68805 WT7      5472     TIP3     H2       HT       0.417000        1.0080           0
     68806 WT7      5782     TIP3     OH2      OT      -0.834000       15.9994           0
     68807 WT7      5782     TIP3     H1       HT       0.417000        1.0080           0
     68808 WT7      5782     TIP3     H2       HT       0.417000        1.0080           0
     68809 WT7      5804     TIP3     OH2      OT      -0.834000       15.9994           0
     68810 WT7      5804     TIP3     H1       HT       0.417000        1.0080           0
     68811 WT7      5804     TIP3     H2       HT       0.417000        1.0080           0
     68812 WT7      5827     TIP3     OH2      OT      -0.834000       15.9994           0
     68813 WT7      5827     TIP3     H1       HT       0.417000        1.0080           0
     68814 WT7      5827     TIP3     H2       HT       0.417000        1.0080           0
     68815 WT7      5901     TIP3     OH2      OT      -0.834000       15.9994           0
     68816 WT7      5901     TIP3     H1       HT       0.417000        1.0080           0
     68817 WT7      5901     TIP3     H2       HT       0.417000        1.0080           0
     68818 WT7      6158     TIP3     OH2      OT      -0.834000       15.9994           0
     68819 WT7      6158     TIP3     H1       HT       0.417000        1.0080           0
     68820 WT7      6158     TIP3     H2       HT       0.417000        1.0080           0
     68821 WT7      6240     TIP3     OH2      OT      -0.834000       15.9994           0
     68822 WT7      6240     TIP3     H1       HT       0.417000        1.0080           0
     68823 WT7      6240     TIP3     H2       HT       0.417000        1.0080           0
     68824 WT7      6628     TIP3     OH2      OT      -0.834000       15.9994           0
     68825 WT7      6628     TIP3     H1       HT       0.417000        1.0080           0
     68826 WT7      6628     TIP3     H2       HT       0.417000        1.0080           0
     68827 WT7      6650     TIP3     OH2      OT      -0.834000       15.9994           0
     68828 WT7      6650     TIP3     H1       HT       0.417000        1.0080           0
     68829 WT7      6650     TIP3     H2       HT       0.417000        1.0080           0
     68830 WT7      6671     TIP3     OH2      OT      -0.834000       15.9994           0
     68831 WT7      6671     TIP3     H1       HT       0.417000        1.0080           0
     68832 WT7      6671     TIP3     H2       HT       0.417000        1.0080           0
     68833 WT7      6726     TIP3     OH2      OT      -0.834000       15.9994           0
     68834 WT7      6726     TIP3     H1       HT       0.417000        1.0080           0
     68835 WT7      6726     TIP3     H2       HT       0.417000        1.0080           0
     68836 WT7      7027     TIP3     OH2      OT      -0.834000       15.9994           0
     68837 WT7      7027     TIP3     H1       HT       0.417000        1.0080           0
     68838 WT7      7027     TIP3     H2       HT       0.417000        1.0080           0
     68839 WT7      7114     TIP3     OH2      OT      -0.834000       15.9994           0
     68840 WT7      7114     TIP3     H1       HT       0.417000        1.0080           0
     68841 WT7      7114     TIP3     H2       HT       0.417000        1.0080           0
     68842 WT7      7133     TIP3     OH2      OT      -0.834000       15.9994           0
     68843 WT7      7133     TIP3     H1       HT       0.417000        1.0080           0
     68844 WT7      7133     TIP3     H2       HT       0.417000        1.0080           0
     68845 WT7      7141     TIP3     OH2      OT      -0.834000       15.9994           0
     68846 WT7      7141     TIP3     H1       HT       0.417000        1.0080           0
     68847 WT7      7141     TIP3     H2       HT       0.417000        1.0080           0
     68848 WT7      7165     TIP3     OH2      OT      -0.834000       15.9994           0
     68849 WT7      7165     TIP3     H1       HT       0.417000        1.0080           0
     68850 WT7      7165     TIP3     H2       HT       0.417000        1.0080           0
     68851 WT7      7196     TIP3     OH2      OT      -0.834000       15.9994           0
     68852 WT7      7196     TIP3     H1       HT       0.417000        1.0080           0
     68853 WT7      7196     TIP3     H2       HT       0.417000        1.0080           0
     68854 WT7      7214     TIP3     OH2      OT      -0.834000       15.9994           0
     68855 WT7      7214     TIP3     H1       HT       0.417000        1.0080           0
     68856 WT7      7214     TIP3     H2       HT       0.417000        1.0080           0
     68857 WT7      7222     TIP3     OH2      OT      -0.834000       15.9994           0
     68858 WT7      7222     TIP3     H1       HT       0.417000        1.0080           0
     68859 WT7      7222     TIP3     H2       HT       0.417000        1.0080           0
     68860 WT7      7295     TIP3     OH2      OT      -0.834000       15.9994           0
     68861 WT7      7295     TIP3     H1       HT       0.417000        1.0080           0
     68862 WT7      7295     TIP3     H2       HT       0.417000        1.0080           0
     68863 WT7      7479     TIP3     OH2      OT      -0.834000       15.9994           0
     68864 WT7      7479     TIP3     H1       HT       0.417000        1.0080           0
     68865 WT7      7479     TIP3     H2       HT       0.417000        1.0080           0
     68866 WT7      7510     TIP3     OH2      OT      -0.834000       15.9994           0
     68867 WT7      7510     TIP3     H1       HT       0.417000        1.0080           0
     68868 WT7      7510     TIP3     H2       HT       0.417000        1.0080           0
     68869 WT7      7532     TIP3     OH2      OT      -0.834000       15.9994           0
     68870 WT7      7532     TIP3     H1       HT       0.417000        1.0080           0
     68871 WT7      7532     TIP3     H2       HT       0.417000        1.0080           0
     68872 WT7      7537     TIP3     OH2      OT      -0.834000       15.9994           0
     68873 WT7      7537     TIP3     H1       HT       0.417000        1.0080           0
     68874 WT7      7537     TIP3     H2       HT       0.417000        1.0080           0
     68875 WT7      7550     TIP3     OH2      OT      -0.834000       15.9994           0
     68876 WT7      7550     TIP3     H1       HT       0.417000        1.0080           0
     68877 WT7      7550     TIP3     H2       HT       0.417000        1.0080           0
     68878 WT7      7554     TIP3     OH2      OT      -0.834000       15.9994           0
     68879 WT7      7554     TIP3     H1       HT       0.417000        1.0080           0
     68880 WT7      7554     TIP3     H2       HT       0.417000        1.0080           0
     68881 WT7      7557     TIP3     OH2      OT      -0.834000       15.9994           0
     68882 WT7      7557     TIP3     H1       HT       0.417000        1.0080           0
     68883 WT7      7557     TIP3     H2       HT       0.417000        1.0080           0
     68884 WT7      7563     TIP3     OH2      OT      -0.834000       15.9994           0
     68885 WT7      7563     TIP3     H1       HT       0.417000        1.0080           0
     68886 WT7      7563     TIP3     H2       HT       0.417000        1.0080           0
     68887 WT7      7568     TIP3     OH2      OT      -0.834000       15.9994           0
     68888 WT7      7568     TIP3     H1       HT       0.417000        1.0080           0
     68889 WT7      7568     TIP3     H2       HT       0.417000        1.0080           0
     68890 WT7      7576     TIP3     OH2      OT      -0.834000       15.9994           0
     68891 WT7      7576     TIP3     H1       HT       0.417000        1.0080           0
     68892 WT7      7576     TIP3     H2       HT       0.417000        1.0080           0
     68893 WT7      7583     TIP3     OH2      OT      -0.834000       15.9994           0
     68894 WT7      7583     TIP3     H1       HT       0.417000        1.0080           0
     68895 WT7      7583     TIP3     H2       HT       0.417000        1.0080           0
     68896 WT7      7607     TIP3     OH2      OT      -0.834000       15.9994           0
     68897 WT7      7607     TIP3     H1       HT       0.417000        1.0080           0
     68898 WT7      7607     TIP3     H2       HT       0.417000        1.0080           0
     68899 WT7      7630     TIP3     OH2      OT      -0.834000       15.9994           0
     68900 WT7      7630     TIP3     H1       HT       0.417000        1.0080           0
     68901 WT7      7630     TIP3     H2       HT       0.417000        1.0080           0
     68902 WT7      7631     TIP3     OH2      OT      -0.834000       15.9994           0
     68903 WT7      7631     TIP3     H1       HT       0.417000        1.0080           0
     68904 WT7      7631     TIP3     H2       HT       0.417000        1.0080           0
     68905 WT7      7634     TIP3     OH2      OT      -0.834000       15.9994           0
     68906 WT7      7634     TIP3     H1       HT       0.417000        1.0080           0
     68907 WT7      7634     TIP3     H2       HT       0.417000        1.0080           0
     68908 WT7      7661     TIP3     OH2      OT      -0.834000       15.9994           0
     68909 WT7      7661     TIP3     H1       HT       0.417000        1.0080           0
     68910 WT7      7661     TIP3     H2       HT       0.417000        1.0080           0
     68911 WT7      7676     TIP3     OH2      OT      -0.834000       15.9994           0
     68912 WT7      7676     TIP3     H1       HT       0.417000        1.0080           0
     68913 WT7      7676     TIP3     H2       HT       0.417000        1.0080           0
     68914 WT7      7707     TIP3     OH2      OT      -0.834000       15.9994           0
     68915 WT7      7707     TIP3     H1       HT       0.417000        1.0080           0
     68916 WT7      7707     TIP3     H2       HT       0.417000        1.0080           0
     68917 WT7      7739     TIP3     OH2      OT      -0.834000       15.9994           0
     68918 WT7      7739     TIP3     H1       HT       0.417000        1.0080           0
     68919 WT7      7739     TIP3     H2       HT       0.417000        1.0080           0
     68920 WT7      7876     TIP3     OH2      OT      -0.834000       15.9994           0
     68921 WT7      7876     TIP3     H1       HT       0.417000        1.0080           0
     68922 WT7      7876     TIP3     H2       HT       0.417000        1.0080           0
     68923 WT7      7945     TIP3     OH2      OT      -0.834000       15.9994           0
     68924 WT7      7945     TIP3     H1       HT       0.417000        1.0080           0
     68925 WT7      7945     TIP3     H2       HT       0.417000        1.0080           0
     68926 WT7      7951     TIP3     OH2      OT      -0.834000       15.9994           0
     68927 WT7      7951     TIP3     H1       HT       0.417000        1.0080           0
     68928 WT7      7951     TIP3     H2       HT       0.417000        1.0080           0
     68929 WT7      7961     TIP3     OH2      OT      -0.834000       15.9994           0
     68930 WT7      7961     TIP3     H1       HT       0.417000        1.0080           0
     68931 WT7      7961     TIP3     H2       HT       0.417000        1.0080           0
     68932 WT7      7978     TIP3     OH2      OT      -0.834000       15.9994           0
     68933 WT7      7978     TIP3     H1       HT       0.417000        1.0080           0
     68934 WT7      7978     TIP3     H2       HT       0.417000        1.0080           0
     68935 WT7      7985     TIP3     OH2      OT      -0.834000       15.9994           0
     68936 WT7      7985     TIP3     H1       HT       0.417000        1.0080           0
     68937 WT7      7985     TIP3     H2       HT       0.417000        1.0080           0
     68938 WT7      7998     TIP3     OH2      OT      -0.834000       15.9994           0
     68939 WT7      7998     TIP3     H1       HT       0.417000        1.0080           0
     68940 WT7      7998     TIP3     H2       HT       0.417000        1.0080           0
     68941 WT7      8009     TIP3     OH2      OT      -0.834000       15.9994           0
     68942 WT7      8009     TIP3     H1       HT       0.417000        1.0080           0
     68943 WT7      8009     TIP3     H2       HT       0.417000        1.0080           0
     68944 WT7      8014     TIP3     OH2      OT      -0.834000       15.9994           0
     68945 WT7      8014     TIP3     H1       HT       0.417000        1.0080           0
     68946 WT7      8014     TIP3     H2       HT       0.417000        1.0080           0
     68947 WT7      8017     TIP3     OH2      OT      -0.834000       15.9994           0
     68948 WT7      8017     TIP3     H1       HT       0.417000        1.0080           0
     68949 WT7      8017     TIP3     H2       HT       0.417000        1.0080           0
     68950 WT7      8023     TIP3     OH2      OT      -0.834000       15.9994           0
     68951 WT7      8023     TIP3     H1       HT       0.417000        1.0080           0
     68952 WT7      8023     TIP3     H2       HT       0.417000        1.0080           0
     68953 WT7      8029     TIP3     OH2      OT      -0.834000       15.9994           0
     68954 WT7      8029     TIP3     H1       HT       0.417000        1.0080           0
     68955 WT7      8029     TIP3     H2       HT       0.417000        1.0080           0
     68956 WT7      8031     TIP3     OH2      OT      -0.834000       15.9994           0
     68957 WT7      8031     TIP3     H1       HT       0.417000        1.0080           0
     68958 WT7      8031     TIP3     H2       HT       0.417000        1.0080           0
     68959 WT7      8034     TIP3     OH2      OT      -0.834000       15.9994           0
     68960 WT7      8034     TIP3     H1       HT       0.417000        1.0080           0
     68961 WT7      8034     TIP3     H2       HT       0.417000        1.0080           0
     68962 WT7      8046     TIP3     OH2      OT      -0.834000       15.9994           0
     68963 WT7      8046     TIP3     H1       HT       0.417000        1.0080           0
     68964 WT7      8046     TIP3     H2       HT       0.417000        1.0080           0
     68965 WT7      8055     TIP3     OH2      OT      -0.834000       15.9994           0
     68966 WT7      8055     TIP3     H1       HT       0.417000        1.0080           0
     68967 WT7      8055     TIP3     H2       HT       0.417000        1.0080           0
     68968 WT7      8064     TIP3     OH2      OT      -0.834000       15.9994           0
     68969 WT7      8064     TIP3     H1       HT       0.417000        1.0080           0
     68970 WT7      8064     TIP3     H2       HT       0.417000        1.0080           0
     68971 WT7      8068     TIP3     OH2      OT      -0.834000       15.9994           0
     68972 WT7      8068     TIP3     H1       HT       0.417000        1.0080           0
     68973 WT7      8068     TIP3     H2       HT       0.417000        1.0080           0
     68974 WT7      8076     TIP3     OH2      OT      -0.834000       15.9994           0
     68975 WT7      8076     TIP3     H1       HT       0.417000        1.0080           0
     68976 WT7      8076     TIP3     H2       HT       0.417000        1.0080           0
     68977 WT7      8079     TIP3     OH2      OT      -0.834000       15.9994           0
     68978 WT7      8079     TIP3     H1       HT       0.417000        1.0080           0
     68979 WT7      8079     TIP3     H2       HT       0.417000        1.0080           0
     68980 WT7      8082     TIP3     OH2      OT      -0.834000       15.9994           0
     68981 WT7      8082     TIP3     H1       HT       0.417000        1.0080           0
     68982 WT7      8082     TIP3     H2       HT       0.417000        1.0080           0
     68983 WT7      8083     TIP3     OH2      OT      -0.834000       15.9994           0
     68984 WT7      8083     TIP3     H1       HT       0.417000        1.0080           0
     68985 WT7      8083     TIP3     H2       HT       0.417000        1.0080           0
     68986 WT7      8097     TIP3     OH2      OT      -0.834000       15.9994           0
     68987 WT7      8097     TIP3     H1       HT       0.417000        1.0080           0
     68988 WT7      8097     TIP3     H2       HT       0.417000        1.0080           0
     68989 WT7      8123     TIP3     OH2      OT      -0.834000       15.9994           0
     68990 WT7      8123     TIP3     H1       HT       0.417000        1.0080           0
     68991 WT7      8123     TIP3     H2       HT       0.417000        1.0080           0
     68992 WT7      8142     TIP3     OH2      OT      -0.834000       15.9994           0
     68993 WT7      8142     TIP3     H1       HT       0.417000        1.0080           0
     68994 WT7      8142     TIP3     H2       HT       0.417000        1.0080           0
     68995 WT7      8270     TIP3     OH2      OT      -0.834000       15.9994           0
     68996 WT7      8270     TIP3     H1       HT       0.417000        1.0080           0
     68997 WT7      8270     TIP3     H2       HT       0.417000        1.0080           0
     68998 WT7      8290     TIP3     OH2      OT      -0.834000       15.9994           0
     68999 WT7      8290     TIP3     H1       HT       0.417000        1.0080           0
     69000 WT7      8290     TIP3     H2       HT       0.417000        1.0080           0
     69001 WT7      8309     TIP3     OH2      OT      -0.834000       15.9994           0
     69002 WT7      8309     TIP3     H1       HT       0.417000        1.0080           0
     69003 WT7      8309     TIP3     H2       HT       0.417000        1.0080           0
     69004 WT7      8364     TIP3     OH2      OT      -0.834000       15.9994           0
     69005 WT7      8364     TIP3     H1       HT       0.417000        1.0080           0
     69006 WT7      8364     TIP3     H2       HT       0.417000        1.0080           0
     69007 WT7      8370     TIP3     OH2      OT      -0.834000       15.9994           0
     69008 WT7      8370     TIP3     H1       HT       0.417000        1.0080           0
     69009 WT7      8370     TIP3     H2       HT       0.417000        1.0080           0
     69010 WT7      8375     TIP3     OH2      OT      -0.834000       15.9994           0
     69011 WT7      8375     TIP3     H1       HT       0.417000        1.0080           0
     69012 WT7      8375     TIP3     H2       HT       0.417000        1.0080           0
     69013 WT7      8376     TIP3     OH2      OT      -0.834000       15.9994           0
     69014 WT7      8376     TIP3     H1       HT       0.417000        1.0080           0
     69015 WT7      8376     TIP3     H2       HT       0.417000        1.0080           0
     69016 WT7      8393     TIP3     OH2      OT      -0.834000       15.9994           0
     69017 WT7      8393     TIP3     H1       HT       0.417000        1.0080           0
     69018 WT7      8393     TIP3     H2       HT       0.417000        1.0080           0
     69019 WT7      8394     TIP3     OH2      OT      -0.834000       15.9994           0
     69020 WT7      8394     TIP3     H1       HT       0.417000        1.0080           0
     69021 WT7      8394     TIP3     H2       HT       0.417000        1.0080           0
     69022 WT7      8395     TIP3     OH2      OT      -0.834000       15.9994           0
     69023 WT7      8395     TIP3     H1       HT       0.417000        1.0080           0
     69024 WT7      8395     TIP3     H2       HT       0.417000        1.0080           0
     69025 WT7      8403     TIP3     OH2      OT      -0.834000       15.9994           0
     69026 WT7      8403     TIP3     H1       HT       0.417000        1.0080           0
     69027 WT7      8403     TIP3     H2       HT       0.417000        1.0080           0
     69028 WT7      8408     TIP3     OH2      OT      -0.834000       15.9994           0
     69029 WT7      8408     TIP3     H1       HT       0.417000        1.0080           0
     69030 WT7      8408     TIP3     H2       HT       0.417000        1.0080           0
     69031 WT7      8411     TIP3     OH2      OT      -0.834000       15.9994           0
     69032 WT7      8411     TIP3     H1       HT       0.417000        1.0080           0
     69033 WT7      8411     TIP3     H2       HT       0.417000        1.0080           0
     69034 WT7      8412     TIP3     OH2      OT      -0.834000       15.9994           0
     69035 WT7      8412     TIP3     H1       HT       0.417000        1.0080           0
     69036 WT7      8412     TIP3     H2       HT       0.417000        1.0080           0
     69037 WT7      8414     TIP3     OH2      OT      -0.834000       15.9994           0
     69038 WT7      8414     TIP3     H1       HT       0.417000        1.0080           0
     69039 WT7      8414     TIP3     H2       HT       0.417000        1.0080           0
     69040 WT7      8415     TIP3     OH2      OT      -0.834000       15.9994           0
     69041 WT7      8415     TIP3     H1       HT       0.417000        1.0080           0
     69042 WT7      8415     TIP3     H2       HT       0.417000        1.0080           0
     69043 WT7      8419     TIP3     OH2      OT      -0.834000       15.9994           0
     69044 WT7      8419     TIP3     H1       HT       0.417000        1.0080           0
     69045 WT7      8419     TIP3     H2       HT       0.417000        1.0080           0
     69046 WT7      8420     TIP3     OH2      OT      -0.834000       15.9994           0
     69047 WT7      8420     TIP3     H1       HT       0.417000        1.0080           0
     69048 WT7      8420     TIP3     H2       HT       0.417000        1.0080           0
     69049 WT7      8423     TIP3     OH2      OT      -0.834000       15.9994           0
     69050 WT7      8423     TIP3     H1       HT       0.417000        1.0080           0
     69051 WT7      8423     TIP3     H2       HT       0.417000        1.0080           0
     69052 WT7      8425     TIP3     OH2      OT      -0.834000       15.9994           0
     69053 WT7      8425     TIP3     H1       HT       0.417000        1.0080           0
     69054 WT7      8425     TIP3     H2       HT       0.417000        1.0080           0
     69055 WT7      8437     TIP3     OH2      OT      -0.834000       15.9994           0
     69056 WT7      8437     TIP3     H1       HT       0.417000        1.0080           0
     69057 WT7      8437     TIP3     H2       HT       0.417000        1.0080           0
     69058 WT7      8440     TIP3     OH2      OT      -0.834000       15.9994           0
     69059 WT7      8440     TIP3     H1       HT       0.417000        1.0080           0
     69060 WT7      8440     TIP3     H2       HT       0.417000        1.0080           0
     69061 WT7      8441     TIP3     OH2      OT      -0.834000       15.9994           0
     69062 WT7      8441     TIP3     H1       HT       0.417000        1.0080           0
     69063 WT7      8441     TIP3     H2       HT       0.417000        1.0080           0
     69064 WT7      8448     TIP3     OH2      OT      -0.834000       15.9994           0
     69065 WT7      8448     TIP3     H1       HT       0.417000        1.0080           0
     69066 WT7      8448     TIP3     H2       HT       0.417000        1.0080           0
     69067 WT7      8452     TIP3     OH2      OT      -0.834000       15.9994           0
     69068 WT7      8452     TIP3     H1       HT       0.417000        1.0080           0
     69069 WT7      8452     TIP3     H2       HT       0.417000        1.0080           0
     69070 WT7      8457     TIP3     OH2      OT      -0.834000       15.9994           0
     69071 WT7      8457     TIP3     H1       HT       0.417000        1.0080           0
     69072 WT7      8457     TIP3     H2       HT       0.417000        1.0080           0
     69073 WT7      8459     TIP3     OH2      OT      -0.834000       15.9994           0
     69074 WT7      8459     TIP3     H1       HT       0.417000        1.0080           0
     69075 WT7      8459     TIP3     H2       HT       0.417000        1.0080           0
     69076 WT7      8466     TIP3     OH2      OT      -0.834000       15.9994           0
     69077 WT7      8466     TIP3     H1       HT       0.417000        1.0080           0
     69078 WT7      8466     TIP3     H2       HT       0.417000        1.0080           0
     69079 WT7      8467     TIP3     OH2      OT      -0.834000       15.9994           0
     69080 WT7      8467     TIP3     H1       HT       0.417000        1.0080           0
     69081 WT7      8467     TIP3     H2       HT       0.417000        1.0080           0
     69082 WT7      8468     TIP3     OH2      OT      -0.834000       15.9994           0
     69083 WT7      8468     TIP3     H1       HT       0.417000        1.0080           0
     69084 WT7      8468     TIP3     H2       HT       0.417000        1.0080           0
     69085 WT7      8491     TIP3     OH2      OT      -0.834000       15.9994           0
     69086 WT7      8491     TIP3     H1       HT       0.417000        1.0080           0
     69087 WT7      8491     TIP3     H2       HT       0.417000        1.0080           0
     69088 WT7      8492     TIP3     OH2      OT      -0.834000       15.9994           0
     69089 WT7      8492     TIP3     H1       HT       0.417000        1.0080           0
     69090 WT7      8492     TIP3     H2       HT       0.417000        1.0080           0
     69091 WT7      8518     TIP3     OH2      OT      -0.834000       15.9994           0
     69092 WT7      8518     TIP3     H1       HT       0.417000        1.0080           0
     69093 WT7      8518     TIP3     H2       HT       0.417000        1.0080           0
     69094 WT7      8520     TIP3     OH2      OT      -0.834000       15.9994           0
     69095 WT7      8520     TIP3     H1       HT       0.417000        1.0080           0
     69096 WT7      8520     TIP3     H2       HT       0.417000        1.0080           0
     69097 WT7      8528     TIP3     OH2      OT      -0.834000       15.9994           0
     69098 WT7      8528     TIP3     H1       HT       0.417000        1.0080           0
     69099 WT7      8528     TIP3     H2       HT       0.417000        1.0080           0
     69100 WT7      8534     TIP3     OH2      OT      -0.834000       15.9994           0
     69101 WT7      8534     TIP3     H1       HT       0.417000        1.0080           0
     69102 WT7      8534     TIP3     H2       HT       0.417000        1.0080           0
     69103 WT7      8536     TIP3     OH2      OT      -0.834000       15.9994           0
     69104 WT7      8536     TIP3     H1       HT       0.417000        1.0080           0
     69105 WT7      8536     TIP3     H2       HT       0.417000        1.0080           0
     69106 WT7      8548     TIP3     OH2      OT      -0.834000       15.9994           0
     69107 WT7      8548     TIP3     H1       HT       0.417000        1.0080           0
     69108 WT7      8548     TIP3     H2       HT       0.417000        1.0080           0
     69109 WT7      8555     TIP3     OH2      OT      -0.834000       15.9994           0
     69110 WT7      8555     TIP3     H1       HT       0.417000        1.0080           0
     69111 WT7      8555     TIP3     H2       HT       0.417000        1.0080           0
     69112 WT7      8556     TIP3     OH2      OT      -0.834000       15.9994           0
     69113 WT7      8556     TIP3     H1       HT       0.417000        1.0080           0
     69114 WT7      8556     TIP3     H2       HT       0.417000        1.0080           0
     69115 WT7      8560     TIP3     OH2      OT      -0.834000       15.9994           0
     69116 WT7      8560     TIP3     H1       HT       0.417000        1.0080           0
     69117 WT7      8560     TIP3     H2       HT       0.417000        1.0080           0
     69118 WT7      8566     TIP3     OH2      OT      -0.834000       15.9994           0
     69119 WT7      8566     TIP3     H1       HT       0.417000        1.0080           0
     69120 WT7      8566     TIP3     H2       HT       0.417000        1.0080           0
     69121 WT7      8760     TIP3     OH2      OT      -0.834000       15.9994           0
     69122 WT7      8760     TIP3     H1       HT       0.417000        1.0080           0
     69123 WT7      8760     TIP3     H2       HT       0.417000        1.0080           0
     69124 WT7      8780     TIP3     OH2      OT      -0.834000       15.9994           0
     69125 WT7      8780     TIP3     H1       HT       0.417000        1.0080           0
     69126 WT7      8780     TIP3     H2       HT       0.417000        1.0080           0
     69127 WT7      8794     TIP3     OH2      OT      -0.834000       15.9994           0
     69128 WT7      8794     TIP3     H1       HT       0.417000        1.0080           0
     69129 WT7      8794     TIP3     H2       HT       0.417000        1.0080           0
     69130 WT7      8801     TIP3     OH2      OT      -0.834000       15.9994           0
     69131 WT7      8801     TIP3     H1       HT       0.417000        1.0080           0
     69132 WT7      8801     TIP3     H2       HT       0.417000        1.0080           0
     69133 WT7      8813     TIP3     OH2      OT      -0.834000       15.9994           0
     69134 WT7      8813     TIP3     H1       HT       0.417000        1.0080           0
     69135 WT7      8813     TIP3     H2       HT       0.417000        1.0080           0
     69136 WT7      8822     TIP3     OH2      OT      -0.834000       15.9994           0
     69137 WT7      8822     TIP3     H1       HT       0.417000        1.0080           0
     69138 WT7      8822     TIP3     H2       HT       0.417000        1.0080           0
     69139 WT7      8824     TIP3     OH2      OT      -0.834000       15.9994           0
     69140 WT7      8824     TIP3     H1       HT       0.417000        1.0080           0
     69141 WT7      8824     TIP3     H2       HT       0.417000        1.0080           0
     69142 WT7      8829     TIP3     OH2      OT      -0.834000       15.9994           0
     69143 WT7      8829     TIP3     H1       HT       0.417000        1.0080           0
     69144 WT7      8829     TIP3     H2       HT       0.417000        1.0080           0
     69145 WT7      8833     TIP3     OH2      OT      -0.834000       15.9994           0
     69146 WT7      8833     TIP3     H1       HT       0.417000        1.0080           0
     69147 WT7      8833     TIP3     H2       HT       0.417000        1.0080           0
     69148 WT7      8836     TIP3     OH2      OT      -0.834000       15.9994           0
     69149 WT7      8836     TIP3     H1       HT       0.417000        1.0080           0
     69150 WT7      8836     TIP3     H2       HT       0.417000        1.0080           0
     69151 WT7      8838     TIP3     OH2      OT      -0.834000       15.9994           0
     69152 WT7      8838     TIP3     H1       HT       0.417000        1.0080           0
     69153 WT7      8838     TIP3     H2       HT       0.417000        1.0080           0
     69154 WT7      8843     TIP3     OH2      OT      -0.834000       15.9994           0
     69155 WT7      8843     TIP3     H1       HT       0.417000        1.0080           0
     69156 WT7      8843     TIP3     H2       HT       0.417000        1.0080           0
     69157 WT7      8845     TIP3     OH2      OT      -0.834000       15.9994           0
     69158 WT7      8845     TIP3     H1       HT       0.417000        1.0080           0
     69159 WT7      8845     TIP3     H2       HT       0.417000        1.0080           0
     69160 WT7      8848     TIP3     OH2      OT      -0.834000       15.9994           0
     69161 WT7      8848     TIP3     H1       HT       0.417000        1.0080           0
     69162 WT7      8848     TIP3     H2       HT       0.417000        1.0080           0
     69163 WT7      8852     TIP3     OH2      OT      -0.834000       15.9994           0
     69164 WT7      8852     TIP3     H1       HT       0.417000        1.0080           0
     69165 WT7      8852     TIP3     H2       HT       0.417000        1.0080           0
     69166 WT7      8855     TIP3     OH2      OT      -0.834000       15.9994           0
     69167 WT7      8855     TIP3     H1       HT       0.417000        1.0080           0
     69168 WT7      8855     TIP3     H2       HT       0.417000        1.0080           0
     69169 WT7      8857     TIP3     OH2      OT      -0.834000       15.9994           0
     69170 WT7      8857     TIP3     H1       HT       0.417000        1.0080           0
     69171 WT7      8857     TIP3     H2       HT       0.417000        1.0080           0
     69172 WT7      8864     TIP3     OH2      OT      -0.834000       15.9994           0
     69173 WT7      8864     TIP3     H1       HT       0.417000        1.0080           0
     69174 WT7      8864     TIP3     H2       HT       0.417000        1.0080           0
     69175 WT7      8865     TIP3     OH2      OT      -0.834000       15.9994           0
     69176 WT7      8865     TIP3     H1       HT       0.417000        1.0080           0
     69177 WT7      8865     TIP3     H2       HT       0.417000        1.0080           0
     69178 WT7      8869     TIP3     OH2      OT      -0.834000       15.9994           0
     69179 WT7      8869     TIP3     H1       HT       0.417000        1.0080           0
     69180 WT7      8869     TIP3     H2       HT       0.417000        1.0080           0
     69181 WT7      8870     TIP3     OH2      OT      -0.834000       15.9994           0
     69182 WT7      8870     TIP3     H1       HT       0.417000        1.0080           0
     69183 WT7      8870     TIP3     H2       HT       0.417000        1.0080           0
     69184 WT7      8879     TIP3     OH2      OT      -0.834000       15.9994           0
     69185 WT7      8879     TIP3     H1       HT       0.417000        1.0080           0
     69186 WT7      8879     TIP3     H2       HT       0.417000        1.0080           0
     69187 WT7      8887     TIP3     OH2      OT      -0.834000       15.9994           0
     69188 WT7      8887     TIP3     H1       HT       0.417000        1.0080           0
     69189 WT7      8887     TIP3     H2       HT       0.417000        1.0080           0
     69190 WT7      8894     TIP3     OH2      OT      -0.834000       15.9994           0
     69191 WT7      8894     TIP3     H1       HT       0.417000        1.0080           0
     69192 WT7      8894     TIP3     H2       HT       0.417000        1.0080           0
     69193 WT7      8895     TIP3     OH2      OT      -0.834000       15.9994           0
     69194 WT7      8895     TIP3     H1       HT       0.417000        1.0080           0
     69195 WT7      8895     TIP3     H2       HT       0.417000        1.0080           0
     69196 WT7      8896     TIP3     OH2      OT      -0.834000       15.9994           0
     69197 WT7      8896     TIP3     H1       HT       0.417000        1.0080           0
     69198 WT7      8896     TIP3     H2       HT       0.417000        1.0080           0
     69199 WT7      8898     TIP3     OH2      OT      -0.834000       15.9994           0
     69200 WT7      8898     TIP3     H1       HT       0.417000        1.0080           0
     69201 WT7      8898     TIP3     H2       HT       0.417000        1.0080           0
     69202 WT7      8899     TIP3     OH2      OT      -0.834000       15.9994           0
     69203 WT7      8899     TIP3     H1       HT       0.417000        1.0080           0
     69204 WT7      8899     TIP3     H2       HT       0.417000        1.0080           0
     69205 WT7      8902     TIP3     OH2      OT      -0.834000       15.9994           0
     69206 WT7      8902     TIP3     H1       HT       0.417000        1.0080           0
     69207 WT7      8902     TIP3     H2       HT       0.417000        1.0080           0
     69208 WT7      8903     TIP3     OH2      OT      -0.834000       15.9994           0
     69209 WT7      8903     TIP3     H1       HT       0.417000        1.0080           0
     69210 WT7      8903     TIP3     H2       HT       0.417000        1.0080           0
     69211 WT7      8904     TIP3     OH2      OT      -0.834000       15.9994           0
     69212 WT7      8904     TIP3     H1       HT       0.417000        1.0080           0
     69213 WT7      8904     TIP3     H2       HT       0.417000        1.0080           0
     69214 WT7      8905     TIP3     OH2      OT      -0.834000       15.9994           0
     69215 WT7      8905     TIP3     H1       HT       0.417000        1.0080           0
     69216 WT7      8905     TIP3     H2       HT       0.417000        1.0080           0
     69217 WT7      8918     TIP3     OH2      OT      -0.834000       15.9994           0
     69218 WT7      8918     TIP3     H1       HT       0.417000        1.0080           0
     69219 WT7      8918     TIP3     H2       HT       0.417000        1.0080           0
     69220 WT7      8920     TIP3     OH2      OT      -0.834000       15.9994           0
     69221 WT7      8920     TIP3     H1       HT       0.417000        1.0080           0
     69222 WT7      8920     TIP3     H2       HT       0.417000        1.0080           0
     69223 WT7      8922     TIP3     OH2      OT      -0.834000       15.9994           0
     69224 WT7      8922     TIP3     H1       HT       0.417000        1.0080           0
     69225 WT7      8922     TIP3     H2       HT       0.417000        1.0080           0
     69226 WT7      8923     TIP3     OH2      OT      -0.834000       15.9994           0
     69227 WT7      8923     TIP3     H1       HT       0.417000        1.0080           0
     69228 WT7      8923     TIP3     H2       HT       0.417000        1.0080           0
     69229 WT7      8928     TIP3     OH2      OT      -0.834000       15.9994           0
     69230 WT7      8928     TIP3     H1       HT       0.417000        1.0080           0
     69231 WT7      8928     TIP3     H2       HT       0.417000        1.0080           0
     69232 WT7      8931     TIP3     OH2      OT      -0.834000       15.9994           0
     69233 WT7      8931     TIP3     H1       HT       0.417000        1.0080           0
     69234 WT7      8931     TIP3     H2       HT       0.417000        1.0080           0
     69235 WT7      8932     TIP3     OH2      OT      -0.834000       15.9994           0
     69236 WT7      8932     TIP3     H1       HT       0.417000        1.0080           0
     69237 WT7      8932     TIP3     H2       HT       0.417000        1.0080           0
     69238 WT7      8935     TIP3     OH2      OT      -0.834000       15.9994           0
     69239 WT7      8935     TIP3     H1       HT       0.417000        1.0080           0
     69240 WT7      8935     TIP3     H2       HT       0.417000        1.0080           0
     69241 WT7      8936     TIP3     OH2      OT      -0.834000       15.9994           0
     69242 WT7      8936     TIP3     H1       HT       0.417000        1.0080           0
     69243 WT7      8936     TIP3     H2       HT       0.417000        1.0080           0
     69244 WT7      8938     TIP3     OH2      OT      -0.834000       15.9994           0
     69245 WT7      8938     TIP3     H1       HT       0.417000        1.0080           0
     69246 WT7      8938     TIP3     H2       HT       0.417000        1.0080           0
     69247 WT7      8939     TIP3     OH2      OT      -0.834000       15.9994           0
     69248 WT7      8939     TIP3     H1       HT       0.417000        1.0080           0
     69249 WT7      8939     TIP3     H2       HT       0.417000        1.0080           0
     69250 WT7      8940     TIP3     OH2      OT      -0.834000       15.9994           0
     69251 WT7      8940     TIP3     H1       HT       0.417000        1.0080           0
     69252 WT7      8940     TIP3     H2       HT       0.417000        1.0080           0
     69253 WT7      8942     TIP3     OH2      OT      -0.834000       15.9994           0
     69254 WT7      8942     TIP3     H1       HT       0.417000        1.0080           0
     69255 WT7      8942     TIP3     H2       HT       0.417000        1.0080           0
     69256 WT7      8947     TIP3     OH2      OT      -0.834000       15.9994           0
     69257 WT7      8947     TIP3     H1       HT       0.417000        1.0080           0
     69258 WT7      8947     TIP3     H2       HT       0.417000        1.0080           0
     69259 WT7      8949     TIP3     OH2      OT      -0.834000       15.9994           0
     69260 WT7      8949     TIP3     H1       HT       0.417000        1.0080           0
     69261 WT7      8949     TIP3     H2       HT       0.417000        1.0080           0
     69262 WT7      8952     TIP3     OH2      OT      -0.834000       15.9994           0
     69263 WT7      8952     TIP3     H1       HT       0.417000        1.0080           0
     69264 WT7      8952     TIP3     H2       HT       0.417000        1.0080           0
     69265 WT7      8956     TIP3     OH2      OT      -0.834000       15.9994           0
     69266 WT7      8956     TIP3     H1       HT       0.417000        1.0080           0
     69267 WT7      8956     TIP3     H2       HT       0.417000        1.0080           0
     69268 WT7      8959     TIP3     OH2      OT      -0.834000       15.9994           0
     69269 WT7      8959     TIP3     H1       HT       0.417000        1.0080           0
     69270 WT7      8959     TIP3     H2       HT       0.417000        1.0080           0
     69271 WT7      8960     TIP3     OH2      OT      -0.834000       15.9994           0
     69272 WT7      8960     TIP3     H1       HT       0.417000        1.0080           0
     69273 WT7      8960     TIP3     H2       HT       0.417000        1.0080           0
     69274 WT7      8961     TIP3     OH2      OT      -0.834000       15.9994           0
     69275 WT7      8961     TIP3     H1       HT       0.417000        1.0080           0
     69276 WT7      8961     TIP3     H2       HT       0.417000        1.0080           0
     69277 WT7      8970     TIP3     OH2      OT      -0.834000       15.9994           0
     69278 WT7      8970     TIP3     H1       HT       0.417000        1.0080           0
     69279 WT7      8970     TIP3     H2       HT       0.417000        1.0080           0
     69280 WT7      8977     TIP3     OH2      OT      -0.834000       15.9994           0
     69281 WT7      8977     TIP3     H1       HT       0.417000        1.0080           0
     69282 WT7      8977     TIP3     H2       HT       0.417000        1.0080           0
     69283 WT7      8984     TIP3     OH2      OT      -0.834000       15.9994           0
     69284 WT7      8984     TIP3     H1       HT       0.417000        1.0080           0
     69285 WT7      8984     TIP3     H2       HT       0.417000        1.0080           0
     69286 WT7      8988     TIP3     OH2      OT      -0.834000       15.9994           0
     69287 WT7      8988     TIP3     H1       HT       0.417000        1.0080           0
     69288 WT7      8988     TIP3     H2       HT       0.417000        1.0080           0
     69289 WT7      9001     TIP3     OH2      OT      -0.834000       15.9994           0
     69290 WT7      9001     TIP3     H1       HT       0.417000        1.0080           0
     69291 WT7      9001     TIP3     H2       HT       0.417000        1.0080           0
     69292 WT7      9017     TIP3     OH2      OT      -0.834000       15.9994           0
     69293 WT7      9017     TIP3     H1       HT       0.417000        1.0080           0
     69294 WT7      9017     TIP3     H2       HT       0.417000        1.0080           0
     69295 WT7      9057     TIP3     OH2      OT      -0.834000       15.9994           0
     69296 WT7      9057     TIP3     H1       HT       0.417000        1.0080           0
     69297 WT7      9057     TIP3     H2       HT       0.417000        1.0080           0
     69298 WT7      9068     TIP3     OH2      OT      -0.834000       15.9994           0
     69299 WT7      9068     TIP3     H1       HT       0.417000        1.0080           0
     69300 WT7      9068     TIP3     H2       HT       0.417000        1.0080           0
     69301 WT7      9082     TIP3     OH2      OT      -0.834000       15.9994           0
     69302 WT7      9082     TIP3     H1       HT       0.417000        1.0080           0
     69303 WT7      9082     TIP3     H2       HT       0.417000        1.0080           0
     69304 WT7      9096     TIP3     OH2      OT      -0.834000       15.9994           0
     69305 WT7      9096     TIP3     H1       HT       0.417000        1.0080           0
     69306 WT7      9096     TIP3     H2       HT       0.417000        1.0080           0
     69307 WT7      9165     TIP3     OH2      OT      -0.834000       15.9994           0
     69308 WT7      9165     TIP3     H1       HT       0.417000        1.0080           0
     69309 WT7      9165     TIP3     H2       HT       0.417000        1.0080           0
     69310 WT7      9212     TIP3     OH2      OT      -0.834000       15.9994           0
     69311 WT7      9212     TIP3     H1       HT       0.417000        1.0080           0
     69312 WT7      9212     TIP3     H2       HT       0.417000        1.0080           0
     69313 WT7      9226     TIP3     OH2      OT      -0.834000       15.9994           0
     69314 WT7      9226     TIP3     H1       HT       0.417000        1.0080           0
     69315 WT7      9226     TIP3     H2       HT       0.417000        1.0080           0
     69316 WT7      9234     TIP3     OH2      OT      -0.834000       15.9994           0
     69317 WT7      9234     TIP3     H1       HT       0.417000        1.0080           0
     69318 WT7      9234     TIP3     H2       HT       0.417000        1.0080           0
     69319 WT7      9241     TIP3     OH2      OT      -0.834000       15.9994           0
     69320 WT7      9241     TIP3     H1       HT       0.417000        1.0080           0
     69321 WT7      9241     TIP3     H2       HT       0.417000        1.0080           0
     69322 WT7      9250     TIP3     OH2      OT      -0.834000       15.9994           0
     69323 WT7      9250     TIP3     H1       HT       0.417000        1.0080           0
     69324 WT7      9250     TIP3     H2       HT       0.417000        1.0080           0
     69325 WT8      5        TIP3     OH2      OT      -0.834000       15.9994           0
     69326 WT8      5        TIP3     H1       HT       0.417000        1.0080           0
     69327 WT8      5        TIP3     H2       HT       0.417000        1.0080           0
     69328 WT8      7        TIP3     OH2      OT      -0.834000       15.9994           0
     69329 WT8      7        TIP3     H1       HT       0.417000        1.0080           0
     69330 WT8      7        TIP3     H2       HT       0.417000        1.0080           0
     69331 WT8      21       TIP3     OH2      OT      -0.834000       15.9994           0
     69332 WT8      21       TIP3     H1       HT       0.417000        1.0080           0
     69333 WT8      21       TIP3     H2       HT       0.417000        1.0080           0
     69334 WT8      29       TIP3     OH2      OT      -0.834000       15.9994           0
     69335 WT8      29       TIP3     H1       HT       0.417000        1.0080           0
     69336 WT8      29       TIP3     H2       HT       0.417000        1.0080           0
     69337 WT8      44       TIP3     OH2      OT      -0.834000       15.9994           0
     69338 WT8      44       TIP3     H1       HT       0.417000        1.0080           0
     69339 WT8      44       TIP3     H2       HT       0.417000        1.0080           0
     69340 WT8      46       TIP3     OH2      OT      -0.834000       15.9994           0
     69341 WT8      46       TIP3     H1       HT       0.417000        1.0080           0
     69342 WT8      46       TIP3     H2       HT       0.417000        1.0080           0
     69343 WT8      47       TIP3     OH2      OT      -0.834000       15.9994           0
     69344 WT8      47       TIP3     H1       HT       0.417000        1.0080           0
     69345 WT8      47       TIP3     H2       HT       0.417000        1.0080           0
     69346 WT8      48       TIP3     OH2      OT      -0.834000       15.9994           0
     69347 WT8      48       TIP3     H1       HT       0.417000        1.0080           0
     69348 WT8      48       TIP3     H2       HT       0.417000        1.0080           0
     69349 WT8      52       TIP3     OH2      OT      -0.834000       15.9994           0
     69350 WT8      52       TIP3     H1       HT       0.417000        1.0080           0
     69351 WT8      52       TIP3     H2       HT       0.417000        1.0080           0
     69352 WT8      64       TIP3     OH2      OT      -0.834000       15.9994           0
     69353 WT8      64       TIP3     H1       HT       0.417000        1.0080           0
     69354 WT8      64       TIP3     H2       HT       0.417000        1.0080           0
     69355 WT8      67       TIP3     OH2      OT      -0.834000       15.9994           0
     69356 WT8      67       TIP3     H1       HT       0.417000        1.0080           0
     69357 WT8      67       TIP3     H2       HT       0.417000        1.0080           0
     69358 WT8      68       TIP3     OH2      OT      -0.834000       15.9994           0
     69359 WT8      68       TIP3     H1       HT       0.417000        1.0080           0
     69360 WT8      68       TIP3     H2       HT       0.417000        1.0080           0
     69361 WT8      87       TIP3     OH2      OT      -0.834000       15.9994           0
     69362 WT8      87       TIP3     H1       HT       0.417000        1.0080           0
     69363 WT8      87       TIP3     H2       HT       0.417000        1.0080           0
     69364 WT8      88       TIP3     OH2      OT      -0.834000       15.9994           0
     69365 WT8      88       TIP3     H1       HT       0.417000        1.0080           0
     69366 WT8      88       TIP3     H2       HT       0.417000        1.0080           0
     69367 WT8      90       TIP3     OH2      OT      -0.834000       15.9994           0
     69368 WT8      90       TIP3     H1       HT       0.417000        1.0080           0
     69369 WT8      90       TIP3     H2       HT       0.417000        1.0080           0
     69370 WT8      94       TIP3     OH2      OT      -0.834000       15.9994           0
     69371 WT8      94       TIP3     H1       HT       0.417000        1.0080           0
     69372 WT8      94       TIP3     H2       HT       0.417000        1.0080           0
     69373 WT8      95       TIP3     OH2      OT      -0.834000       15.9994           0
     69374 WT8      95       TIP3     H1       HT       0.417000        1.0080           0
     69375 WT8      95       TIP3     H2       HT       0.417000        1.0080           0
     69376 WT8      108      TIP3     OH2      OT      -0.834000       15.9994           0
     69377 WT8      108      TIP3     H1       HT       0.417000        1.0080           0
     69378 WT8      108      TIP3     H2       HT       0.417000        1.0080           0
     69379 WT8      111      TIP3     OH2      OT      -0.834000       15.9994           0
     69380 WT8      111      TIP3     H1       HT       0.417000        1.0080           0
     69381 WT8      111      TIP3     H2       HT       0.417000        1.0080           0
     69382 WT8      113      TIP3     OH2      OT      -0.834000       15.9994           0
     69383 WT8      113      TIP3     H1       HT       0.417000        1.0080           0
     69384 WT8      113      TIP3     H2       HT       0.417000        1.0080           0
     69385 WT8      115      TIP3     OH2      OT      -0.834000       15.9994           0
     69386 WT8      115      TIP3     H1       HT       0.417000        1.0080           0
     69387 WT8      115      TIP3     H2       HT       0.417000        1.0080           0
     69388 WT8      125      TIP3     OH2      OT      -0.834000       15.9994           0
     69389 WT8      125      TIP3     H1       HT       0.417000        1.0080           0
     69390 WT8      125      TIP3     H2       HT       0.417000        1.0080           0
     69391 WT8      130      TIP3     OH2      OT      -0.834000       15.9994           0
     69392 WT8      130      TIP3     H1       HT       0.417000        1.0080           0
     69393 WT8      130      TIP3     H2       HT       0.417000        1.0080           0
     69394 WT8      133      TIP3     OH2      OT      -0.834000       15.9994           0
     69395 WT8      133      TIP3     H1       HT       0.417000        1.0080           0
     69396 WT8      133      TIP3     H2       HT       0.417000        1.0080           0
     69397 WT8      134      TIP3     OH2      OT      -0.834000       15.9994           0
     69398 WT8      134      TIP3     H1       HT       0.417000        1.0080           0
     69399 WT8      134      TIP3     H2       HT       0.417000        1.0080           0
     69400 WT8      150      TIP3     OH2      OT      -0.834000       15.9994           0
     69401 WT8      150      TIP3     H1       HT       0.417000        1.0080           0
     69402 WT8      150      TIP3     H2       HT       0.417000        1.0080           0
     69403 WT8      152      TIP3     OH2      OT      -0.834000       15.9994           0
     69404 WT8      152      TIP3     H1       HT       0.417000        1.0080           0
     69405 WT8      152      TIP3     H2       HT       0.417000        1.0080           0
     69406 WT8      153      TIP3     OH2      OT      -0.834000       15.9994           0
     69407 WT8      153      TIP3     H1       HT       0.417000        1.0080           0
     69408 WT8      153      TIP3     H2       HT       0.417000        1.0080           0
     69409 WT8      167      TIP3     OH2      OT      -0.834000       15.9994           0
     69410 WT8      167      TIP3     H1       HT       0.417000        1.0080           0
     69411 WT8      167      TIP3     H2       HT       0.417000        1.0080           0
     69412 WT8      175      TIP3     OH2      OT      -0.834000       15.9994           0
     69413 WT8      175      TIP3     H1       HT       0.417000        1.0080           0
     69414 WT8      175      TIP3     H2       HT       0.417000        1.0080           0
     69415 WT8      239      TIP3     OH2      OT      -0.834000       15.9994           0
     69416 WT8      239      TIP3     H1       HT       0.417000        1.0080           0
     69417 WT8      239      TIP3     H2       HT       0.417000        1.0080           0
     69418 WT8      424      TIP3     OH2      OT      -0.834000       15.9994           0
     69419 WT8      424      TIP3     H1       HT       0.417000        1.0080           0
     69420 WT8      424      TIP3     H2       HT       0.417000        1.0080           0
     69421 WT8      443      TIP3     OH2      OT      -0.834000       15.9994           0
     69422 WT8      443      TIP3     H1       HT       0.417000        1.0080           0
     69423 WT8      443      TIP3     H2       HT       0.417000        1.0080           0
     69424 WT8      449      TIP3     OH2      OT      -0.834000       15.9994           0
     69425 WT8      449      TIP3     H1       HT       0.417000        1.0080           0
     69426 WT8      449      TIP3     H2       HT       0.417000        1.0080           0
     69427 WT8      450      TIP3     OH2      OT      -0.834000       15.9994           0
     69428 WT8      450      TIP3     H1       HT       0.417000        1.0080           0
     69429 WT8      450      TIP3     H2       HT       0.417000        1.0080           0
     69430 WT8      465      TIP3     OH2      OT      -0.834000       15.9994           0
     69431 WT8      465      TIP3     H1       HT       0.417000        1.0080           0
     69432 WT8      465      TIP3     H2       HT       0.417000        1.0080           0
     69433 WT8      466      TIP3     OH2      OT      -0.834000       15.9994           0
     69434 WT8      466      TIP3     H1       HT       0.417000        1.0080           0
     69435 WT8      466      TIP3     H2       HT       0.417000        1.0080           0
     69436 WT8      469      TIP3     OH2      OT      -0.834000       15.9994           0
     69437 WT8      469      TIP3     H1       HT       0.417000        1.0080           0
     69438 WT8      469      TIP3     H2       HT       0.417000        1.0080           0
     69439 WT8      484      TIP3     OH2      OT      -0.834000       15.9994           0
     69440 WT8      484      TIP3     H1       HT       0.417000        1.0080           0
     69441 WT8      484      TIP3     H2       HT       0.417000        1.0080           0
     69442 WT8      485      TIP3     OH2      OT      -0.834000       15.9994           0
     69443 WT8      485      TIP3     H1       HT       0.417000        1.0080           0
     69444 WT8      485      TIP3     H2       HT       0.417000        1.0080           0
     69445 WT8      486      TIP3     OH2      OT      -0.834000       15.9994           0
     69446 WT8      486      TIP3     H1       HT       0.417000        1.0080           0
     69447 WT8      486      TIP3     H2       HT       0.417000        1.0080           0
     69448 WT8      489      TIP3     OH2      OT      -0.834000       15.9994           0
     69449 WT8      489      TIP3     H1       HT       0.417000        1.0080           0
     69450 WT8      489      TIP3     H2       HT       0.417000        1.0080           0
     69451 WT8      503      TIP3     OH2      OT      -0.834000       15.9994           0
     69452 WT8      503      TIP3     H1       HT       0.417000        1.0080           0
     69453 WT8      503      TIP3     H2       HT       0.417000        1.0080           0
     69454 WT8      506      TIP3     OH2      OT      -0.834000       15.9994           0
     69455 WT8      506      TIP3     H1       HT       0.417000        1.0080           0
     69456 WT8      506      TIP3     H2       HT       0.417000        1.0080           0
     69457 WT8      507      TIP3     OH2      OT      -0.834000       15.9994           0
     69458 WT8      507      TIP3     H1       HT       0.417000        1.0080           0
     69459 WT8      507      TIP3     H2       HT       0.417000        1.0080           0
     69460 WT8      509      TIP3     OH2      OT      -0.834000       15.9994           0
     69461 WT8      509      TIP3     H1       HT       0.417000        1.0080           0
     69462 WT8      509      TIP3     H2       HT       0.417000        1.0080           0
     69463 WT8      511      TIP3     OH2      OT      -0.834000       15.9994           0
     69464 WT8      511      TIP3     H1       HT       0.417000        1.0080           0
     69465 WT8      511      TIP3     H2       HT       0.417000        1.0080           0
     69466 WT8      512      TIP3     OH2      OT      -0.834000       15.9994           0
     69467 WT8      512      TIP3     H1       HT       0.417000        1.0080           0
     69468 WT8      512      TIP3     H2       HT       0.417000        1.0080           0
     69469 WT8      517      TIP3     OH2      OT      -0.834000       15.9994           0
     69470 WT8      517      TIP3     H1       HT       0.417000        1.0080           0
     69471 WT8      517      TIP3     H2       HT       0.417000        1.0080           0
     69472 WT8      533      TIP3     OH2      OT      -0.834000       15.9994           0
     69473 WT8      533      TIP3     H1       HT       0.417000        1.0080           0
     69474 WT8      533      TIP3     H2       HT       0.417000        1.0080           0
     69475 WT8      534      TIP3     OH2      OT      -0.834000       15.9994           0
     69476 WT8      534      TIP3     H1       HT       0.417000        1.0080           0
     69477 WT8      534      TIP3     H2       HT       0.417000        1.0080           0
     69478 WT8      535      TIP3     OH2      OT      -0.834000       15.9994           0
     69479 WT8      535      TIP3     H1       HT       0.417000        1.0080           0
     69480 WT8      535      TIP3     H2       HT       0.417000        1.0080           0
     69481 WT8      543      TIP3     OH2      OT      -0.834000       15.9994           0
     69482 WT8      543      TIP3     H1       HT       0.417000        1.0080           0
     69483 WT8      543      TIP3     H2       HT       0.417000        1.0080           0
     69484 WT8      550      TIP3     OH2      OT      -0.834000       15.9994           0
     69485 WT8      550      TIP3     H1       HT       0.417000        1.0080           0
     69486 WT8      550      TIP3     H2       HT       0.417000        1.0080           0
     69487 WT8      554      TIP3     OH2      OT      -0.834000       15.9994           0
     69488 WT8      554      TIP3     H1       HT       0.417000        1.0080           0
     69489 WT8      554      TIP3     H2       HT       0.417000        1.0080           0
     69490 WT8      558      TIP3     OH2      OT      -0.834000       15.9994           0
     69491 WT8      558      TIP3     H1       HT       0.417000        1.0080           0
     69492 WT8      558      TIP3     H2       HT       0.417000        1.0080           0
     69493 WT8      562      TIP3     OH2      OT      -0.834000       15.9994           0
     69494 WT8      562      TIP3     H1       HT       0.417000        1.0080           0
     69495 WT8      562      TIP3     H2       HT       0.417000        1.0080           0
     69496 WT8      568      TIP3     OH2      OT      -0.834000       15.9994           0
     69497 WT8      568      TIP3     H1       HT       0.417000        1.0080           0
     69498 WT8      568      TIP3     H2       HT       0.417000        1.0080           0
     69499 WT8      575      TIP3     OH2      OT      -0.834000       15.9994           0
     69500 WT8      575      TIP3     H1       HT       0.417000        1.0080           0
     69501 WT8      575      TIP3     H2       HT       0.417000        1.0080           0
     69502 WT8      584      TIP3     OH2      OT      -0.834000       15.9994           0
     69503 WT8      584      TIP3     H1       HT       0.417000        1.0080           0
     69504 WT8      584      TIP3     H2       HT       0.417000        1.0080           0
     69505 WT8      594      TIP3     OH2      OT      -0.834000       15.9994           0
     69506 WT8      594      TIP3     H1       HT       0.417000        1.0080           0
     69507 WT8      594      TIP3     H2       HT       0.417000        1.0080           0
     69508 WT8      595      TIP3     OH2      OT      -0.834000       15.9994           0
     69509 WT8      595      TIP3     H1       HT       0.417000        1.0080           0
     69510 WT8      595      TIP3     H2       HT       0.417000        1.0080           0
     69511 WT8      612      TIP3     OH2      OT      -0.834000       15.9994           0
     69512 WT8      612      TIP3     H1       HT       0.417000        1.0080           0
     69513 WT8      612      TIP3     H2       HT       0.417000        1.0080           0
     69514 WT8      613      TIP3     OH2      OT      -0.834000       15.9994           0
     69515 WT8      613      TIP3     H1       HT       0.417000        1.0080           0
     69516 WT8      613      TIP3     H2       HT       0.417000        1.0080           0
     69517 WT8      632      TIP3     OH2      OT      -0.834000       15.9994           0
     69518 WT8      632      TIP3     H1       HT       0.417000        1.0080           0
     69519 WT8      632      TIP3     H2       HT       0.417000        1.0080           0
     69520 WT8      634      TIP3     OH2      OT      -0.834000       15.9994           0
     69521 WT8      634      TIP3     H1       HT       0.417000        1.0080           0
     69522 WT8      634      TIP3     H2       HT       0.417000        1.0080           0
     69523 WT8      640      TIP3     OH2      OT      -0.834000       15.9994           0
     69524 WT8      640      TIP3     H1       HT       0.417000        1.0080           0
     69525 WT8      640      TIP3     H2       HT       0.417000        1.0080           0
     69526 WT8      659      TIP3     OH2      OT      -0.834000       15.9994           0
     69527 WT8      659      TIP3     H1       HT       0.417000        1.0080           0
     69528 WT8      659      TIP3     H2       HT       0.417000        1.0080           0
     69529 WT8      822      TIP3     OH2      OT      -0.834000       15.9994           0
     69530 WT8      822      TIP3     H1       HT       0.417000        1.0080           0
     69531 WT8      822      TIP3     H2       HT       0.417000        1.0080           0
     69532 WT8      849      TIP3     OH2      OT      -0.834000       15.9994           0
     69533 WT8      849      TIP3     H1       HT       0.417000        1.0080           0
     69534 WT8      849      TIP3     H2       HT       0.417000        1.0080           0
     69535 WT8      867      TIP3     OH2      OT      -0.834000       15.9994           0
     69536 WT8      867      TIP3     H1       HT       0.417000        1.0080           0
     69537 WT8      867      TIP3     H2       HT       0.417000        1.0080           0
     69538 WT8      888      TIP3     OH2      OT      -0.834000       15.9994           0
     69539 WT8      888      TIP3     H1       HT       0.417000        1.0080           0
     69540 WT8      888      TIP3     H2       HT       0.417000        1.0080           0
     69541 WT8      891      TIP3     OH2      OT      -0.834000       15.9994           0
     69542 WT8      891      TIP3     H1       HT       0.417000        1.0080           0
     69543 WT8      891      TIP3     H2       HT       0.417000        1.0080           0
     69544 WT8      892      TIP3     OH2      OT      -0.834000       15.9994           0
     69545 WT8      892      TIP3     H1       HT       0.417000        1.0080           0
     69546 WT8      892      TIP3     H2       HT       0.417000        1.0080           0
     69547 WT8      906      TIP3     OH2      OT      -0.834000       15.9994           0
     69548 WT8      906      TIP3     H1       HT       0.417000        1.0080           0
     69549 WT8      906      TIP3     H2       HT       0.417000        1.0080           0
     69550 WT8      907      TIP3     OH2      OT      -0.834000       15.9994           0
     69551 WT8      907      TIP3     H1       HT       0.417000        1.0080           0
     69552 WT8      907      TIP3     H2       HT       0.417000        1.0080           0
     69553 WT8      908      TIP3     OH2      OT      -0.834000       15.9994           0
     69554 WT8      908      TIP3     H1       HT       0.417000        1.0080           0
     69555 WT8      908      TIP3     H2       HT       0.417000        1.0080           0
     69556 WT8      912      TIP3     OH2      OT      -0.834000       15.9994           0
     69557 WT8      912      TIP3     H1       HT       0.417000        1.0080           0
     69558 WT8      912      TIP3     H2       HT       0.417000        1.0080           0
     69559 WT8      924      TIP3     OH2      OT      -0.834000       15.9994           0
     69560 WT8      924      TIP3     H1       HT       0.417000        1.0080           0
     69561 WT8      924      TIP3     H2       HT       0.417000        1.0080           0
     69562 WT8      927      TIP3     OH2      OT      -0.834000       15.9994           0
     69563 WT8      927      TIP3     H1       HT       0.417000        1.0080           0
     69564 WT8      927      TIP3     H2       HT       0.417000        1.0080           0
     69565 WT8      928      TIP3     OH2      OT      -0.834000       15.9994           0
     69566 WT8      928      TIP3     H1       HT       0.417000        1.0080           0
     69567 WT8      928      TIP3     H2       HT       0.417000        1.0080           0
     69568 WT8      929      TIP3     OH2      OT      -0.834000       15.9994           0
     69569 WT8      929      TIP3     H1       HT       0.417000        1.0080           0
     69570 WT8      929      TIP3     H2       HT       0.417000        1.0080           0
     69571 WT8      930      TIP3     OH2      OT      -0.834000       15.9994           0
     69572 WT8      930      TIP3     H1       HT       0.417000        1.0080           0
     69573 WT8      930      TIP3     H2       HT       0.417000        1.0080           0
     69574 WT8      932      TIP3     OH2      OT      -0.834000       15.9994           0
     69575 WT8      932      TIP3     H1       HT       0.417000        1.0080           0
     69576 WT8      932      TIP3     H2       HT       0.417000        1.0080           0
     69577 WT8      933      TIP3     OH2      OT      -0.834000       15.9994           0
     69578 WT8      933      TIP3     H1       HT       0.417000        1.0080           0
     69579 WT8      933      TIP3     H2       HT       0.417000        1.0080           0
     69580 WT8      942      TIP3     OH2      OT      -0.834000       15.9994           0
     69581 WT8      942      TIP3     H1       HT       0.417000        1.0080           0
     69582 WT8      942      TIP3     H2       HT       0.417000        1.0080           0
     69583 WT8      947      TIP3     OH2      OT      -0.834000       15.9994           0
     69584 WT8      947      TIP3     H1       HT       0.417000        1.0080           0
     69585 WT8      947      TIP3     H2       HT       0.417000        1.0080           0
     69586 WT8      948      TIP3     OH2      OT      -0.834000       15.9994           0
     69587 WT8      948      TIP3     H1       HT       0.417000        1.0080           0
     69588 WT8      948      TIP3     H2       HT       0.417000        1.0080           0
     69589 WT8      950      TIP3     OH2      OT      -0.834000       15.9994           0
     69590 WT8      950      TIP3     H1       HT       0.417000        1.0080           0
     69591 WT8      950      TIP3     H2       HT       0.417000        1.0080           0
     69592 WT8      951      TIP3     OH2      OT      -0.834000       15.9994           0
     69593 WT8      951      TIP3     H1       HT       0.417000        1.0080           0
     69594 WT8      951      TIP3     H2       HT       0.417000        1.0080           0
     69595 WT8      952      TIP3     OH2      OT      -0.834000       15.9994           0
     69596 WT8      952      TIP3     H1       HT       0.417000        1.0080           0
     69597 WT8      952      TIP3     H2       HT       0.417000        1.0080           0
     69598 WT8      953      TIP3     OH2      OT      -0.834000       15.9994           0
     69599 WT8      953      TIP3     H1       HT       0.417000        1.0080           0
     69600 WT8      953      TIP3     H2       HT       0.417000        1.0080           0
     69601 WT8      964      TIP3     OH2      OT      -0.834000       15.9994           0
     69602 WT8      964      TIP3     H1       HT       0.417000        1.0080           0
     69603 WT8      964      TIP3     H2       HT       0.417000        1.0080           0
     69604 WT8      972      TIP3     OH2      OT      -0.834000       15.9994           0
     69605 WT8      972      TIP3     H1       HT       0.417000        1.0080           0
     69606 WT8      972      TIP3     H2       HT       0.417000        1.0080           0
     69607 WT8      973      TIP3     OH2      OT      -0.834000       15.9994           0
     69608 WT8      973      TIP3     H1       HT       0.417000        1.0080           0
     69609 WT8      973      TIP3     H2       HT       0.417000        1.0080           0
     69610 WT8      974      TIP3     OH2      OT      -0.834000       15.9994           0
     69611 WT8      974      TIP3     H1       HT       0.417000        1.0080           0
     69612 WT8      974      TIP3     H2       HT       0.417000        1.0080           0
     69613 WT8      975      TIP3     OH2      OT      -0.834000       15.9994           0
     69614 WT8      975      TIP3     H1       HT       0.417000        1.0080           0
     69615 WT8      975      TIP3     H2       HT       0.417000        1.0080           0
     69616 WT8      987      TIP3     OH2      OT      -0.834000       15.9994           0
     69617 WT8      987      TIP3     H1       HT       0.417000        1.0080           0
     69618 WT8      987      TIP3     H2       HT       0.417000        1.0080           0
     69619 WT8      992      TIP3     OH2      OT      -0.834000       15.9994           0
     69620 WT8      992      TIP3     H1       HT       0.417000        1.0080           0
     69621 WT8      992      TIP3     H2       HT       0.417000        1.0080           0
     69622 WT8      993      TIP3     OH2      OT      -0.834000       15.9994           0
     69623 WT8      993      TIP3     H1       HT       0.417000        1.0080           0
     69624 WT8      993      TIP3     H2       HT       0.417000        1.0080           0
     69625 WT8      995      TIP3     OH2      OT      -0.834000       15.9994           0
     69626 WT8      995      TIP3     H1       HT       0.417000        1.0080           0
     69627 WT8      995      TIP3     H2       HT       0.417000        1.0080           0
     69628 WT8      996      TIP3     OH2      OT      -0.834000       15.9994           0
     69629 WT8      996      TIP3     H1       HT       0.417000        1.0080           0
     69630 WT8      996      TIP3     H2       HT       0.417000        1.0080           0
     69631 WT8      1007     TIP3     OH2      OT      -0.834000       15.9994           0
     69632 WT8      1007     TIP3     H1       HT       0.417000        1.0080           0
     69633 WT8      1007     TIP3     H2       HT       0.417000        1.0080           0
     69634 WT8      1011     TIP3     OH2      OT      -0.834000       15.9994           0
     69635 WT8      1011     TIP3     H1       HT       0.417000        1.0080           0
     69636 WT8      1011     TIP3     H2       HT       0.417000        1.0080           0
     69637 WT8      1013     TIP3     OH2      OT      -0.834000       15.9994           0
     69638 WT8      1013     TIP3     H1       HT       0.417000        1.0080           0
     69639 WT8      1013     TIP3     H2       HT       0.417000        1.0080           0
     69640 WT8      1014     TIP3     OH2      OT      -0.834000       15.9994           0
     69641 WT8      1014     TIP3     H1       HT       0.417000        1.0080           0
     69642 WT8      1014     TIP3     H2       HT       0.417000        1.0080           0
     69643 WT8      1015     TIP3     OH2      OT      -0.834000       15.9994           0
     69644 WT8      1015     TIP3     H1       HT       0.417000        1.0080           0
     69645 WT8      1015     TIP3     H2       HT       0.417000        1.0080           0
     69646 WT8      1017     TIP3     OH2      OT      -0.834000       15.9994           0
     69647 WT8      1017     TIP3     H1       HT       0.417000        1.0080           0
     69648 WT8      1017     TIP3     H2       HT       0.417000        1.0080           0
     69649 WT8      1018     TIP3     OH2      OT      -0.834000       15.9994           0
     69650 WT8      1018     TIP3     H1       HT       0.417000        1.0080           0
     69651 WT8      1018     TIP3     H2       HT       0.417000        1.0080           0
     69652 WT8      1027     TIP3     OH2      OT      -0.834000       15.9994           0
     69653 WT8      1027     TIP3     H1       HT       0.417000        1.0080           0
     69654 WT8      1027     TIP3     H2       HT       0.417000        1.0080           0
     69655 WT8      1032     TIP3     OH2      OT      -0.834000       15.9994           0
     69656 WT8      1032     TIP3     H1       HT       0.417000        1.0080           0
     69657 WT8      1032     TIP3     H2       HT       0.417000        1.0080           0
     69658 WT8      1053     TIP3     OH2      OT      -0.834000       15.9994           0
     69659 WT8      1053     TIP3     H1       HT       0.417000        1.0080           0
     69660 WT8      1053     TIP3     H2       HT       0.417000        1.0080           0
     69661 WT8      1115     TIP3     OH2      OT      -0.834000       15.9994           0
     69662 WT8      1115     TIP3     H1       HT       0.417000        1.0080           0
     69663 WT8      1115     TIP3     H2       HT       0.417000        1.0080           0
     69664 WT8      1117     TIP3     OH2      OT      -0.834000       15.9994           0
     69665 WT8      1117     TIP3     H1       HT       0.417000        1.0080           0
     69666 WT8      1117     TIP3     H2       HT       0.417000        1.0080           0
     69667 WT8      1138     TIP3     OH2      OT      -0.834000       15.9994           0
     69668 WT8      1138     TIP3     H1       HT       0.417000        1.0080           0
     69669 WT8      1138     TIP3     H2       HT       0.417000        1.0080           0
     69670 WT8      1301     TIP3     OH2      OT      -0.834000       15.9994           0
     69671 WT8      1301     TIP3     H1       HT       0.417000        1.0080           0
     69672 WT8      1301     TIP3     H2       HT       0.417000        1.0080           0
     69673 WT8      1307     TIP3     OH2      OT      -0.834000       15.9994           0
     69674 WT8      1307     TIP3     H1       HT       0.417000        1.0080           0
     69675 WT8      1307     TIP3     H2       HT       0.417000        1.0080           0
     69676 WT8      1308     TIP3     OH2      OT      -0.834000       15.9994           0
     69677 WT8      1308     TIP3     H1       HT       0.417000        1.0080           0
     69678 WT8      1308     TIP3     H2       HT       0.417000        1.0080           0
     69679 WT8      1326     TIP3     OH2      OT      -0.834000       15.9994           0
     69680 WT8      1326     TIP3     H1       HT       0.417000        1.0080           0
     69681 WT8      1326     TIP3     H2       HT       0.417000        1.0080           0
     69682 WT8      1327     TIP3     OH2      OT      -0.834000       15.9994           0
     69683 WT8      1327     TIP3     H1       HT       0.417000        1.0080           0
     69684 WT8      1327     TIP3     H2       HT       0.417000        1.0080           0
     69685 WT8      1328     TIP3     OH2      OT      -0.834000       15.9994           0
     69686 WT8      1328     TIP3     H1       HT       0.417000        1.0080           0
     69687 WT8      1328     TIP3     H2       HT       0.417000        1.0080           0
     69688 WT8      1329     TIP3     OH2      OT      -0.834000       15.9994           0
     69689 WT8      1329     TIP3     H1       HT       0.417000        1.0080           0
     69690 WT8      1329     TIP3     H2       HT       0.417000        1.0080           0
     69691 WT8      1330     TIP3     OH2      OT      -0.834000       15.9994           0
     69692 WT8      1330     TIP3     H1       HT       0.417000        1.0080           0
     69693 WT8      1330     TIP3     H2       HT       0.417000        1.0080           0
     69694 WT8      1331     TIP3     OH2      OT      -0.834000       15.9994           0
     69695 WT8      1331     TIP3     H1       HT       0.417000        1.0080           0
     69696 WT8      1331     TIP3     H2       HT       0.417000        1.0080           0
     69697 WT8      1333     TIP3     OH2      OT      -0.834000       15.9994           0
     69698 WT8      1333     TIP3     H1       HT       0.417000        1.0080           0
     69699 WT8      1333     TIP3     H2       HT       0.417000        1.0080           0
     69700 WT8      1344     TIP3     OH2      OT      -0.834000       15.9994           0
     69701 WT8      1344     TIP3     H1       HT       0.417000        1.0080           0
     69702 WT8      1344     TIP3     H2       HT       0.417000        1.0080           0
     69703 WT8      1346     TIP3     OH2      OT      -0.834000       15.9994           0
     69704 WT8      1346     TIP3     H1       HT       0.417000        1.0080           0
     69705 WT8      1346     TIP3     H2       HT       0.417000        1.0080           0
     69706 WT8      1347     TIP3     OH2      OT      -0.834000       15.9994           0
     69707 WT8      1347     TIP3     H1       HT       0.417000        1.0080           0
     69708 WT8      1347     TIP3     H2       HT       0.417000        1.0080           0
     69709 WT8      1349     TIP3     OH2      OT      -0.834000       15.9994           0
     69710 WT8      1349     TIP3     H1       HT       0.417000        1.0080           0
     69711 WT8      1349     TIP3     H2       HT       0.417000        1.0080           0
     69712 WT8      1352     TIP3     OH2      OT      -0.834000       15.9994           0
     69713 WT8      1352     TIP3     H1       HT       0.417000        1.0080           0
     69714 WT8      1352     TIP3     H2       HT       0.417000        1.0080           0
     69715 WT8      1354     TIP3     OH2      OT      -0.834000       15.9994           0
     69716 WT8      1354     TIP3     H1       HT       0.417000        1.0080           0
     69717 WT8      1354     TIP3     H2       HT       0.417000        1.0080           0
     69718 WT8      1355     TIP3     OH2      OT      -0.834000       15.9994           0
     69719 WT8      1355     TIP3     H1       HT       0.417000        1.0080           0
     69720 WT8      1355     TIP3     H2       HT       0.417000        1.0080           0
     69721 WT8      1367     TIP3     OH2      OT      -0.834000       15.9994           0
     69722 WT8      1367     TIP3     H1       HT       0.417000        1.0080           0
     69723 WT8      1367     TIP3     H2       HT       0.417000        1.0080           0
     69724 WT8      1368     TIP3     OH2      OT      -0.834000       15.9994           0
     69725 WT8      1368     TIP3     H1       HT       0.417000        1.0080           0
     69726 WT8      1368     TIP3     H2       HT       0.417000        1.0080           0
     69727 WT8      1370     TIP3     OH2      OT      -0.834000       15.9994           0
     69728 WT8      1370     TIP3     H1       HT       0.417000        1.0080           0
     69729 WT8      1370     TIP3     H2       HT       0.417000        1.0080           0
     69730 WT8      1371     TIP3     OH2      OT      -0.834000       15.9994           0
     69731 WT8      1371     TIP3     H1       HT       0.417000        1.0080           0
     69732 WT8      1371     TIP3     H2       HT       0.417000        1.0080           0
     69733 WT8      1374     TIP3     OH2      OT      -0.834000       15.9994           0
     69734 WT8      1374     TIP3     H1       HT       0.417000        1.0080           0
     69735 WT8      1374     TIP3     H2       HT       0.417000        1.0080           0
     69736 WT8      1376     TIP3     OH2      OT      -0.834000       15.9994           0
     69737 WT8      1376     TIP3     H1       HT       0.417000        1.0080           0
     69738 WT8      1376     TIP3     H2       HT       0.417000        1.0080           0
     69739 WT8      1387     TIP3     OH2      OT      -0.834000       15.9994           0
     69740 WT8      1387     TIP3     H1       HT       0.417000        1.0080           0
     69741 WT8      1387     TIP3     H2       HT       0.417000        1.0080           0
     69742 WT8      1388     TIP3     OH2      OT      -0.834000       15.9994           0
     69743 WT8      1388     TIP3     H1       HT       0.417000        1.0080           0
     69744 WT8      1388     TIP3     H2       HT       0.417000        1.0080           0
     69745 WT8      1389     TIP3     OH2      OT      -0.834000       15.9994           0
     69746 WT8      1389     TIP3     H1       HT       0.417000        1.0080           0
     69747 WT8      1389     TIP3     H2       HT       0.417000        1.0080           0
     69748 WT8      1392     TIP3     OH2      OT      -0.834000       15.9994           0
     69749 WT8      1392     TIP3     H1       HT       0.417000        1.0080           0
     69750 WT8      1392     TIP3     H2       HT       0.417000        1.0080           0
     69751 WT8      1407     TIP3     OH2      OT      -0.834000       15.9994           0
     69752 WT8      1407     TIP3     H1       HT       0.417000        1.0080           0
     69753 WT8      1407     TIP3     H2       HT       0.417000        1.0080           0
     69754 WT8      1411     TIP3     OH2      OT      -0.834000       15.9994           0
     69755 WT8      1411     TIP3     H1       HT       0.417000        1.0080           0
     69756 WT8      1411     TIP3     H2       HT       0.417000        1.0080           0
     69757 WT8      1412     TIP3     OH2      OT      -0.834000       15.9994           0
     69758 WT8      1412     TIP3     H1       HT       0.417000        1.0080           0
     69759 WT8      1412     TIP3     H2       HT       0.417000        1.0080           0
     69760 WT8      1413     TIP3     OH2      OT      -0.834000       15.9994           0
     69761 WT8      1413     TIP3     H1       HT       0.417000        1.0080           0
     69762 WT8      1413     TIP3     H2       HT       0.417000        1.0080           0
     69763 WT8      1414     TIP3     OH2      OT      -0.834000       15.9994           0
     69764 WT8      1414     TIP3     H1       HT       0.417000        1.0080           0
     69765 WT8      1414     TIP3     H2       HT       0.417000        1.0080           0
     69766 WT8      1415     TIP3     OH2      OT      -0.834000       15.9994           0
     69767 WT8      1415     TIP3     H1       HT       0.417000        1.0080           0
     69768 WT8      1415     TIP3     H2       HT       0.417000        1.0080           0
     69769 WT8      1418     TIP3     OH2      OT      -0.834000       15.9994           0
     69770 WT8      1418     TIP3     H1       HT       0.417000        1.0080           0
     69771 WT8      1418     TIP3     H2       HT       0.417000        1.0080           0
     69772 WT8      1425     TIP3     OH2      OT      -0.834000       15.9994           0
     69773 WT8      1425     TIP3     H1       HT       0.417000        1.0080           0
     69774 WT8      1425     TIP3     H2       HT       0.417000        1.0080           0
     69775 WT8      1427     TIP3     OH2      OT      -0.834000       15.9994           0
     69776 WT8      1427     TIP3     H1       HT       0.417000        1.0080           0
     69777 WT8      1427     TIP3     H2       HT       0.417000        1.0080           0
     69778 WT8      1428     TIP3     OH2      OT      -0.834000       15.9994           0
     69779 WT8      1428     TIP3     H1       HT       0.417000        1.0080           0
     69780 WT8      1428     TIP3     H2       HT       0.417000        1.0080           0
     69781 WT8      1429     TIP3     OH2      OT      -0.834000       15.9994           0
     69782 WT8      1429     TIP3     H1       HT       0.417000        1.0080           0
     69783 WT8      1429     TIP3     H2       HT       0.417000        1.0080           0
     69784 WT8      1433     TIP3     OH2      OT      -0.834000       15.9994           0
     69785 WT8      1433     TIP3     H1       HT       0.417000        1.0080           0
     69786 WT8      1433     TIP3     H2       HT       0.417000        1.0080           0
     69787 WT8      1435     TIP3     OH2      OT      -0.834000       15.9994           0
     69788 WT8      1435     TIP3     H1       HT       0.417000        1.0080           0
     69789 WT8      1435     TIP3     H2       HT       0.417000        1.0080           0
     69790 WT8      1440     TIP3     OH2      OT      -0.834000       15.9994           0
     69791 WT8      1440     TIP3     H1       HT       0.417000        1.0080           0
     69792 WT8      1440     TIP3     H2       HT       0.417000        1.0080           0
     69793 WT8      1451     TIP3     OH2      OT      -0.834000       15.9994           0
     69794 WT8      1451     TIP3     H1       HT       0.417000        1.0080           0
     69795 WT8      1451     TIP3     H2       HT       0.417000        1.0080           0
     69796 WT8      1452     TIP3     OH2      OT      -0.834000       15.9994           0
     69797 WT8      1452     TIP3     H1       HT       0.417000        1.0080           0
     69798 WT8      1452     TIP3     H2       HT       0.417000        1.0080           0
     69799 WT8      1454     TIP3     OH2      OT      -0.834000       15.9994           0
     69800 WT8      1454     TIP3     H1       HT       0.417000        1.0080           0
     69801 WT8      1454     TIP3     H2       HT       0.417000        1.0080           0
     69802 WT8      1455     TIP3     OH2      OT      -0.834000       15.9994           0
     69803 WT8      1455     TIP3     H1       HT       0.417000        1.0080           0
     69804 WT8      1455     TIP3     H2       HT       0.417000        1.0080           0
     69805 WT8      1457     TIP3     OH2      OT      -0.834000       15.9994           0
     69806 WT8      1457     TIP3     H1       HT       0.417000        1.0080           0
     69807 WT8      1457     TIP3     H2       HT       0.417000        1.0080           0
     69808 WT8      1458     TIP3     OH2      OT      -0.834000       15.9994           0
     69809 WT8      1458     TIP3     H1       HT       0.417000        1.0080           0
     69810 WT8      1458     TIP3     H2       HT       0.417000        1.0080           0
     69811 WT8      1471     TIP3     OH2      OT      -0.834000       15.9994           0
     69812 WT8      1471     TIP3     H1       HT       0.417000        1.0080           0
     69813 WT8      1471     TIP3     H2       HT       0.417000        1.0080           0
     69814 WT8      1474     TIP3     OH2      OT      -0.834000       15.9994           0
     69815 WT8      1474     TIP3     H1       HT       0.417000        1.0080           0
     69816 WT8      1474     TIP3     H2       HT       0.417000        1.0080           0
     69817 WT8      1475     TIP3     OH2      OT      -0.834000       15.9994           0
     69818 WT8      1475     TIP3     H1       HT       0.417000        1.0080           0
     69819 WT8      1475     TIP3     H2       HT       0.417000        1.0080           0
     69820 WT8      1494     TIP3     OH2      OT      -0.834000       15.9994           0
     69821 WT8      1494     TIP3     H1       HT       0.417000        1.0080           0
     69822 WT8      1494     TIP3     H2       HT       0.417000        1.0080           0
     69823 WT8      1497     TIP3     OH2      OT      -0.834000       15.9994           0
     69824 WT8      1497     TIP3     H1       HT       0.417000        1.0080           0
     69825 WT8      1497     TIP3     H2       HT       0.417000        1.0080           0
     69826 WT8      1512     TIP3     OH2      OT      -0.834000       15.9994           0
     69827 WT8      1512     TIP3     H1       HT       0.417000        1.0080           0
     69828 WT8      1512     TIP3     H2       HT       0.417000        1.0080           0
     69829 WT8      1532     TIP3     OH2      OT      -0.834000       15.9994           0
     69830 WT8      1532     TIP3     H1       HT       0.417000        1.0080           0
     69831 WT8      1532     TIP3     H2       HT       0.417000        1.0080           0
     69832 WT8      1559     TIP3     OH2      OT      -0.834000       15.9994           0
     69833 WT8      1559     TIP3     H1       HT       0.417000        1.0080           0
     69834 WT8      1559     TIP3     H2       HT       0.417000        1.0080           0
     69835 WT8      1611     TIP3     OH2      OT      -0.834000       15.9994           0
     69836 WT8      1611     TIP3     H1       HT       0.417000        1.0080           0
     69837 WT8      1611     TIP3     H2       HT       0.417000        1.0080           0
     69838 WT8      1707     TIP3     OH2      OT      -0.834000       15.9994           0
     69839 WT8      1707     TIP3     H1       HT       0.417000        1.0080           0
     69840 WT8      1707     TIP3     H2       HT       0.417000        1.0080           0
     69841 WT8      1723     TIP3     OH2      OT      -0.834000       15.9994           0
     69842 WT8      1723     TIP3     H1       HT       0.417000        1.0080           0
     69843 WT8      1723     TIP3     H2       HT       0.417000        1.0080           0
     69844 WT8      1725     TIP3     OH2      OT      -0.834000       15.9994           0
     69845 WT8      1725     TIP3     H1       HT       0.417000        1.0080           0
     69846 WT8      1725     TIP3     H2       HT       0.417000        1.0080           0
     69847 WT8      1729     TIP3     OH2      OT      -0.834000       15.9994           0
     69848 WT8      1729     TIP3     H1       HT       0.417000        1.0080           0
     69849 WT8      1729     TIP3     H2       HT       0.417000        1.0080           0
     69850 WT8      1730     TIP3     OH2      OT      -0.834000       15.9994           0
     69851 WT8      1730     TIP3     H1       HT       0.417000        1.0080           0
     69852 WT8      1730     TIP3     H2       HT       0.417000        1.0080           0
     69853 WT8      1733     TIP3     OH2      OT      -0.834000       15.9994           0
     69854 WT8      1733     TIP3     H1       HT       0.417000        1.0080           0
     69855 WT8      1733     TIP3     H2       HT       0.417000        1.0080           0
     69856 WT8      1744     TIP3     OH2      OT      -0.834000       15.9994           0
     69857 WT8      1744     TIP3     H1       HT       0.417000        1.0080           0
     69858 WT8      1744     TIP3     H2       HT       0.417000        1.0080           0
     69859 WT8      1746     TIP3     OH2      OT      -0.834000       15.9994           0
     69860 WT8      1746     TIP3     H1       HT       0.417000        1.0080           0
     69861 WT8      1746     TIP3     H2       HT       0.417000        1.0080           0
     69862 WT8      1752     TIP3     OH2      OT      -0.834000       15.9994           0
     69863 WT8      1752     TIP3     H1       HT       0.417000        1.0080           0
     69864 WT8      1752     TIP3     H2       HT       0.417000        1.0080           0
     69865 WT8      1764     TIP3     OH2      OT      -0.834000       15.9994           0
     69866 WT8      1764     TIP3     H1       HT       0.417000        1.0080           0
     69867 WT8      1764     TIP3     H2       HT       0.417000        1.0080           0
     69868 WT8      1766     TIP3     OH2      OT      -0.834000       15.9994           0
     69869 WT8      1766     TIP3     H1       HT       0.417000        1.0080           0
     69870 WT8      1766     TIP3     H2       HT       0.417000        1.0080           0
     69871 WT8      1771     TIP3     OH2      OT      -0.834000       15.9994           0
     69872 WT8      1771     TIP3     H1       HT       0.417000        1.0080           0
     69873 WT8      1771     TIP3     H2       HT       0.417000        1.0080           0
     69874 WT8      1773     TIP3     OH2      OT      -0.834000       15.9994           0
     69875 WT8      1773     TIP3     H1       HT       0.417000        1.0080           0
     69876 WT8      1773     TIP3     H2       HT       0.417000        1.0080           0
     69877 WT8      1788     TIP3     OH2      OT      -0.834000       15.9994           0
     69878 WT8      1788     TIP3     H1       HT       0.417000        1.0080           0
     69879 WT8      1788     TIP3     H2       HT       0.417000        1.0080           0
     69880 WT8      1789     TIP3     OH2      OT      -0.834000       15.9994           0
     69881 WT8      1789     TIP3     H1       HT       0.417000        1.0080           0
     69882 WT8      1789     TIP3     H2       HT       0.417000        1.0080           0
     69883 WT8      1790     TIP3     OH2      OT      -0.834000       15.9994           0
     69884 WT8      1790     TIP3     H1       HT       0.417000        1.0080           0
     69885 WT8      1790     TIP3     H2       HT       0.417000        1.0080           0
     69886 WT8      1795     TIP3     OH2      OT      -0.834000       15.9994           0
     69887 WT8      1795     TIP3     H1       HT       0.417000        1.0080           0
     69888 WT8      1795     TIP3     H2       HT       0.417000        1.0080           0
     69889 WT8      1796     TIP3     OH2      OT      -0.834000       15.9994           0
     69890 WT8      1796     TIP3     H1       HT       0.417000        1.0080           0
     69891 WT8      1796     TIP3     H2       HT       0.417000        1.0080           0
     69892 WT8      1813     TIP3     OH2      OT      -0.834000       15.9994           0
     69893 WT8      1813     TIP3     H1       HT       0.417000        1.0080           0
     69894 WT8      1813     TIP3     H2       HT       0.417000        1.0080           0
     69895 WT8      1814     TIP3     OH2      OT      -0.834000       15.9994           0
     69896 WT8      1814     TIP3     H1       HT       0.417000        1.0080           0
     69897 WT8      1814     TIP3     H2       HT       0.417000        1.0080           0
     69898 WT8      1816     TIP3     OH2      OT      -0.834000       15.9994           0
     69899 WT8      1816     TIP3     H1       HT       0.417000        1.0080           0
     69900 WT8      1816     TIP3     H2       HT       0.417000        1.0080           0
     69901 WT8      1824     TIP3     OH2      OT      -0.834000       15.9994           0
     69902 WT8      1824     TIP3     H1       HT       0.417000        1.0080           0
     69903 WT8      1824     TIP3     H2       HT       0.417000        1.0080           0
     69904 WT8      1829     TIP3     OH2      OT      -0.834000       15.9994           0
     69905 WT8      1829     TIP3     H1       HT       0.417000        1.0080           0
     69906 WT8      1829     TIP3     H2       HT       0.417000        1.0080           0
     69907 WT8      1830     TIP3     OH2      OT      -0.834000       15.9994           0
     69908 WT8      1830     TIP3     H1       HT       0.417000        1.0080           0
     69909 WT8      1830     TIP3     H2       HT       0.417000        1.0080           0
     69910 WT8      1831     TIP3     OH2      OT      -0.834000       15.9994           0
     69911 WT8      1831     TIP3     H1       HT       0.417000        1.0080           0
     69912 WT8      1831     TIP3     H2       HT       0.417000        1.0080           0
     69913 WT8      1832     TIP3     OH2      OT      -0.834000       15.9994           0
     69914 WT8      1832     TIP3     H1       HT       0.417000        1.0080           0
     69915 WT8      1832     TIP3     H2       HT       0.417000        1.0080           0
     69916 WT8      1836     TIP3     OH2      OT      -0.834000       15.9994           0
     69917 WT8      1836     TIP3     H1       HT       0.417000        1.0080           0
     69918 WT8      1836     TIP3     H2       HT       0.417000        1.0080           0
     69919 WT8      1838     TIP3     OH2      OT      -0.834000       15.9994           0
     69920 WT8      1838     TIP3     H1       HT       0.417000        1.0080           0
     69921 WT8      1838     TIP3     H2       HT       0.417000        1.0080           0
     69922 WT8      1849     TIP3     OH2      OT      -0.834000       15.9994           0
     69923 WT8      1849     TIP3     H1       HT       0.417000        1.0080           0
     69924 WT8      1849     TIP3     H2       HT       0.417000        1.0080           0
     69925 WT8      1851     TIP3     OH2      OT      -0.834000       15.9994           0
     69926 WT8      1851     TIP3     H1       HT       0.417000        1.0080           0
     69927 WT8      1851     TIP3     H2       HT       0.417000        1.0080           0
     69928 WT8      1853     TIP3     OH2      OT      -0.834000       15.9994           0
     69929 WT8      1853     TIP3     H1       HT       0.417000        1.0080           0
     69930 WT8      1853     TIP3     H2       HT       0.417000        1.0080           0
     69931 WT8      1854     TIP3     OH2      OT      -0.834000       15.9994           0
     69932 WT8      1854     TIP3     H1       HT       0.417000        1.0080           0
     69933 WT8      1854     TIP3     H2       HT       0.417000        1.0080           0
     69934 WT8      1856     TIP3     OH2      OT      -0.834000       15.9994           0
     69935 WT8      1856     TIP3     H1       HT       0.417000        1.0080           0
     69936 WT8      1856     TIP3     H2       HT       0.417000        1.0080           0
     69937 WT8      1861     TIP3     OH2      OT      -0.834000       15.9994           0
     69938 WT8      1861     TIP3     H1       HT       0.417000        1.0080           0
     69939 WT8      1861     TIP3     H2       HT       0.417000        1.0080           0
     69940 WT8      1871     TIP3     OH2      OT      -0.834000       15.9994           0
     69941 WT8      1871     TIP3     H1       HT       0.417000        1.0080           0
     69942 WT8      1871     TIP3     H2       HT       0.417000        1.0080           0
     69943 WT8      1873     TIP3     OH2      OT      -0.834000       15.9994           0
     69944 WT8      1873     TIP3     H1       HT       0.417000        1.0080           0
     69945 WT8      1873     TIP3     H2       HT       0.417000        1.0080           0
     69946 WT8      1874     TIP3     OH2      OT      -0.834000       15.9994           0
     69947 WT8      1874     TIP3     H1       HT       0.417000        1.0080           0
     69948 WT8      1874     TIP3     H2       HT       0.417000        1.0080           0
     69949 WT8      1878     TIP3     OH2      OT      -0.834000       15.9994           0
     69950 WT8      1878     TIP3     H1       HT       0.417000        1.0080           0
     69951 WT8      1878     TIP3     H2       HT       0.417000        1.0080           0
     69952 WT8      1881     TIP3     OH2      OT      -0.834000       15.9994           0
     69953 WT8      1881     TIP3     H1       HT       0.417000        1.0080           0
     69954 WT8      1881     TIP3     H2       HT       0.417000        1.0080           0
     69955 WT8      1894     TIP3     OH2      OT      -0.834000       15.9994           0
     69956 WT8      1894     TIP3     H1       HT       0.417000        1.0080           0
     69957 WT8      1894     TIP3     H2       HT       0.417000        1.0080           0
     69958 WT8      1896     TIP3     OH2      OT      -0.834000       15.9994           0
     69959 WT8      1896     TIP3     H1       HT       0.417000        1.0080           0
     69960 WT8      1896     TIP3     H2       HT       0.417000        1.0080           0
     69961 WT8      1897     TIP3     OH2      OT      -0.834000       15.9994           0
     69962 WT8      1897     TIP3     H1       HT       0.417000        1.0080           0
     69963 WT8      1897     TIP3     H2       HT       0.417000        1.0080           0
     69964 WT8      1911     TIP3     OH2      OT      -0.834000       15.9994           0
     69965 WT8      1911     TIP3     H1       HT       0.417000        1.0080           0
     69966 WT8      1911     TIP3     H2       HT       0.417000        1.0080           0
     69967 WT8      1912     TIP3     OH2      OT      -0.834000       15.9994           0
     69968 WT8      1912     TIP3     H1       HT       0.417000        1.0080           0
     69969 WT8      1912     TIP3     H2       HT       0.417000        1.0080           0
     69970 WT8      1914     TIP3     OH2      OT      -0.834000       15.9994           0
     69971 WT8      1914     TIP3     H1       HT       0.417000        1.0080           0
     69972 WT8      1914     TIP3     H2       HT       0.417000        1.0080           0
     69973 WT8      1915     TIP3     OH2      OT      -0.834000       15.9994           0
     69974 WT8      1915     TIP3     H1       HT       0.417000        1.0080           0
     69975 WT8      1915     TIP3     H2       HT       0.417000        1.0080           0
     69976 WT8      1938     TIP3     OH2      OT      -0.834000       15.9994           0
     69977 WT8      1938     TIP3     H1       HT       0.417000        1.0080           0
     69978 WT8      1938     TIP3     H2       HT       0.417000        1.0080           0
     69979 WT8      1952     TIP3     OH2      OT      -0.834000       15.9994           0
     69980 WT8      1952     TIP3     H1       HT       0.417000        1.0080           0
     69981 WT8      1952     TIP3     H2       HT       0.417000        1.0080           0
     69982 WT8      1961     TIP3     OH2      OT      -0.834000       15.9994           0
     69983 WT8      1961     TIP3     H1       HT       0.417000        1.0080           0
     69984 WT8      1961     TIP3     H2       HT       0.417000        1.0080           0
     69985 WT8      1977     TIP3     OH2      OT      -0.834000       15.9994           0
     69986 WT8      1977     TIP3     H1       HT       0.417000        1.0080           0
     69987 WT8      1977     TIP3     H2       HT       0.417000        1.0080           0
     69988 WT8      2123     TIP3     OH2      OT      -0.834000       15.9994           0
     69989 WT8      2123     TIP3     H1       HT       0.417000        1.0080           0
     69990 WT8      2123     TIP3     H2       HT       0.417000        1.0080           0
     69991 WT8      2163     TIP3     OH2      OT      -0.834000       15.9994           0
     69992 WT8      2163     TIP3     H1       HT       0.417000        1.0080           0
     69993 WT8      2163     TIP3     H2       HT       0.417000        1.0080           0
     69994 WT8      2165     TIP3     OH2      OT      -0.834000       15.9994           0
     69995 WT8      2165     TIP3     H1       HT       0.417000        1.0080           0
     69996 WT8      2165     TIP3     H2       HT       0.417000        1.0080           0
     69997 WT8      2167     TIP3     OH2      OT      -0.834000       15.9994           0
     69998 WT8      2167     TIP3     H1       HT       0.417000        1.0080           0
     69999 WT8      2167     TIP3     H2       HT       0.417000        1.0080           0
     70000 WT8      2172     TIP3     OH2      OT      -0.834000       15.9994           0
     70001 WT8      2172     TIP3     H1       HT       0.417000        1.0080           0
     70002 WT8      2172     TIP3     H2       HT       0.417000        1.0080           0
     70003 WT8      2185     TIP3     OH2      OT      -0.834000       15.9994           0
     70004 WT8      2185     TIP3     H1       HT       0.417000        1.0080           0
     70005 WT8      2185     TIP3     H2       HT       0.417000        1.0080           0
     70006 WT8      2186     TIP3     OH2      OT      -0.834000       15.9994           0
     70007 WT8      2186     TIP3     H1       HT       0.417000        1.0080           0
     70008 WT8      2186     TIP3     H2       HT       0.417000        1.0080           0
     70009 WT8      2187     TIP3     OH2      OT      -0.834000       15.9994           0
     70010 WT8      2187     TIP3     H1       HT       0.417000        1.0080           0
     70011 WT8      2187     TIP3     H2       HT       0.417000        1.0080           0
     70012 WT8      2227     TIP3     OH2      OT      -0.834000       15.9994           0
     70013 WT8      2227     TIP3     H1       HT       0.417000        1.0080           0
     70014 WT8      2227     TIP3     H2       HT       0.417000        1.0080           0
     70015 WT8      2229     TIP3     OH2      OT      -0.834000       15.9994           0
     70016 WT8      2229     TIP3     H1       HT       0.417000        1.0080           0
     70017 WT8      2229     TIP3     H2       HT       0.417000        1.0080           0
     70018 WT8      2231     TIP3     OH2      OT      -0.834000       15.9994           0
     70019 WT8      2231     TIP3     H1       HT       0.417000        1.0080           0
     70020 WT8      2231     TIP3     H2       HT       0.417000        1.0080           0
     70021 WT8      2232     TIP3     OH2      OT      -0.834000       15.9994           0
     70022 WT8      2232     TIP3     H1       HT       0.417000        1.0080           0
     70023 WT8      2232     TIP3     H2       HT       0.417000        1.0080           0
     70024 WT8      2244     TIP3     OH2      OT      -0.834000       15.9994           0
     70025 WT8      2244     TIP3     H1       HT       0.417000        1.0080           0
     70026 WT8      2244     TIP3     H2       HT       0.417000        1.0080           0
     70027 WT8      2250     TIP3     OH2      OT      -0.834000       15.9994           0
     70028 WT8      2250     TIP3     H1       HT       0.417000        1.0080           0
     70029 WT8      2250     TIP3     H2       HT       0.417000        1.0080           0
     70030 WT8      2251     TIP3     OH2      OT      -0.834000       15.9994           0
     70031 WT8      2251     TIP3     H1       HT       0.417000        1.0080           0
     70032 WT8      2251     TIP3     H2       HT       0.417000        1.0080           0
     70033 WT8      2253     TIP3     OH2      OT      -0.834000       15.9994           0
     70034 WT8      2253     TIP3     H1       HT       0.417000        1.0080           0
     70035 WT8      2253     TIP3     H2       HT       0.417000        1.0080           0
     70036 WT8      2254     TIP3     OH2      OT      -0.834000       15.9994           0
     70037 WT8      2254     TIP3     H1       HT       0.417000        1.0080           0
     70038 WT8      2254     TIP3     H2       HT       0.417000        1.0080           0
     70039 WT8      2269     TIP3     OH2      OT      -0.834000       15.9994           0
     70040 WT8      2269     TIP3     H1       HT       0.417000        1.0080           0
     70041 WT8      2269     TIP3     H2       HT       0.417000        1.0080           0
     70042 WT8      2270     TIP3     OH2      OT      -0.834000       15.9994           0
     70043 WT8      2270     TIP3     H1       HT       0.417000        1.0080           0
     70044 WT8      2270     TIP3     H2       HT       0.417000        1.0080           0
     70045 WT8      2271     TIP3     OH2      OT      -0.834000       15.9994           0
     70046 WT8      2271     TIP3     H1       HT       0.417000        1.0080           0
     70047 WT8      2271     TIP3     H2       HT       0.417000        1.0080           0
     70048 WT8      2272     TIP3     OH2      OT      -0.834000       15.9994           0
     70049 WT8      2272     TIP3     H1       HT       0.417000        1.0080           0
     70050 WT8      2272     TIP3     H2       HT       0.417000        1.0080           0
     70051 WT8      2275     TIP3     OH2      OT      -0.834000       15.9994           0
     70052 WT8      2275     TIP3     H1       HT       0.417000        1.0080           0
     70053 WT8      2275     TIP3     H2       HT       0.417000        1.0080           0
     70054 WT8      2277     TIP3     OH2      OT      -0.834000       15.9994           0
     70055 WT8      2277     TIP3     H1       HT       0.417000        1.0080           0
     70056 WT8      2277     TIP3     H2       HT       0.417000        1.0080           0
     70057 WT8      2280     TIP3     OH2      OT      -0.834000       15.9994           0
     70058 WT8      2280     TIP3     H1       HT       0.417000        1.0080           0
     70059 WT8      2280     TIP3     H2       HT       0.417000        1.0080           0
     70060 WT8      2288     TIP3     OH2      OT      -0.834000       15.9994           0
     70061 WT8      2288     TIP3     H1       HT       0.417000        1.0080           0
     70062 WT8      2288     TIP3     H2       HT       0.417000        1.0080           0
     70063 WT8      2292     TIP3     OH2      OT      -0.834000       15.9994           0
     70064 WT8      2292     TIP3     H1       HT       0.417000        1.0080           0
     70065 WT8      2292     TIP3     H2       HT       0.417000        1.0080           0
     70066 WT8      2293     TIP3     OH2      OT      -0.834000       15.9994           0
     70067 WT8      2293     TIP3     H1       HT       0.417000        1.0080           0
     70068 WT8      2293     TIP3     H2       HT       0.417000        1.0080           0
     70069 WT8      2295     TIP3     OH2      OT      -0.834000       15.9994           0
     70070 WT8      2295     TIP3     H1       HT       0.417000        1.0080           0
     70071 WT8      2295     TIP3     H2       HT       0.417000        1.0080           0
     70072 WT8      2302     TIP3     OH2      OT      -0.834000       15.9994           0
     70073 WT8      2302     TIP3     H1       HT       0.417000        1.0080           0
     70074 WT8      2302     TIP3     H2       HT       0.417000        1.0080           0
     70075 WT8      2309     TIP3     OH2      OT      -0.834000       15.9994           0
     70076 WT8      2309     TIP3     H1       HT       0.417000        1.0080           0
     70077 WT8      2309     TIP3     H2       HT       0.417000        1.0080           0
     70078 WT8      2311     TIP3     OH2      OT      -0.834000       15.9994           0
     70079 WT8      2311     TIP3     H1       HT       0.417000        1.0080           0
     70080 WT8      2311     TIP3     H2       HT       0.417000        1.0080           0
     70081 WT8      2312     TIP3     OH2      OT      -0.834000       15.9994           0
     70082 WT8      2312     TIP3     H1       HT       0.417000        1.0080           0
     70083 WT8      2312     TIP3     H2       HT       0.417000        1.0080           0
     70084 WT8      2315     TIP3     OH2      OT      -0.834000       15.9994           0
     70085 WT8      2315     TIP3     H1       HT       0.417000        1.0080           0
     70086 WT8      2315     TIP3     H2       HT       0.417000        1.0080           0
     70087 WT8      2316     TIP3     OH2      OT      -0.834000       15.9994           0
     70088 WT8      2316     TIP3     H1       HT       0.417000        1.0080           0
     70089 WT8      2316     TIP3     H2       HT       0.417000        1.0080           0
     70090 WT8      2317     TIP3     OH2      OT      -0.834000       15.9994           0
     70091 WT8      2317     TIP3     H1       HT       0.417000        1.0080           0
     70092 WT8      2317     TIP3     H2       HT       0.417000        1.0080           0
     70093 WT8      2319     TIP3     OH2      OT      -0.834000       15.9994           0
     70094 WT8      2319     TIP3     H1       HT       0.417000        1.0080           0
     70095 WT8      2319     TIP3     H2       HT       0.417000        1.0080           0
     70096 WT8      2335     TIP3     OH2      OT      -0.834000       15.9994           0
     70097 WT8      2335     TIP3     H1       HT       0.417000        1.0080           0
     70098 WT8      2335     TIP3     H2       HT       0.417000        1.0080           0
     70099 WT8      2339     TIP3     OH2      OT      -0.834000       15.9994           0
     70100 WT8      2339     TIP3     H1       HT       0.417000        1.0080           0
     70101 WT8      2339     TIP3     H2       HT       0.417000        1.0080           0
     70102 WT8      2351     TIP3     OH2      OT      -0.834000       15.9994           0
     70103 WT8      2351     TIP3     H1       HT       0.417000        1.0080           0
     70104 WT8      2351     TIP3     H2       HT       0.417000        1.0080           0
     70105 WT8      2352     TIP3     OH2      OT      -0.834000       15.9994           0
     70106 WT8      2352     TIP3     H1       HT       0.417000        1.0080           0
     70107 WT8      2352     TIP3     H2       HT       0.417000        1.0080           0
     70108 WT8      2355     TIP3     OH2      OT      -0.834000       15.9994           0
     70109 WT8      2355     TIP3     H1       HT       0.417000        1.0080           0
     70110 WT8      2355     TIP3     H2       HT       0.417000        1.0080           0
     70111 WT8      2357     TIP3     OH2      OT      -0.834000       15.9994           0
     70112 WT8      2357     TIP3     H1       HT       0.417000        1.0080           0
     70113 WT8      2357     TIP3     H2       HT       0.417000        1.0080           0
     70114 WT8      2358     TIP3     OH2      OT      -0.834000       15.9994           0
     70115 WT8      2358     TIP3     H1       HT       0.417000        1.0080           0
     70116 WT8      2358     TIP3     H2       HT       0.417000        1.0080           0
     70117 WT8      2359     TIP3     OH2      OT      -0.834000       15.9994           0
     70118 WT8      2359     TIP3     H1       HT       0.417000        1.0080           0
     70119 WT8      2359     TIP3     H2       HT       0.417000        1.0080           0
     70120 WT8      2377     TIP3     OH2      OT      -0.834000       15.9994           0
     70121 WT8      2377     TIP3     H1       HT       0.417000        1.0080           0
     70122 WT8      2377     TIP3     H2       HT       0.417000        1.0080           0
     70123 WT8      2380     TIP3     OH2      OT      -0.834000       15.9994           0
     70124 WT8      2380     TIP3     H1       HT       0.417000        1.0080           0
     70125 WT8      2380     TIP3     H2       HT       0.417000        1.0080           0
     70126 WT8      2606     TIP3     OH2      OT      -0.834000       15.9994           0
     70127 WT8      2606     TIP3     H1       HT       0.417000        1.0080           0
     70128 WT8      2606     TIP3     H2       HT       0.417000        1.0080           0
     70129 WT8      2607     TIP3     OH2      OT      -0.834000       15.9994           0
     70130 WT8      2607     TIP3     H1       HT       0.417000        1.0080           0
     70131 WT8      2607     TIP3     H2       HT       0.417000        1.0080           0
     70132 WT8      2608     TIP3     OH2      OT      -0.834000       15.9994           0
     70133 WT8      2608     TIP3     H1       HT       0.417000        1.0080           0
     70134 WT8      2608     TIP3     H2       HT       0.417000        1.0080           0
     70135 WT8      2624     TIP3     OH2      OT      -0.834000       15.9994           0
     70136 WT8      2624     TIP3     H1       HT       0.417000        1.0080           0
     70137 WT8      2624     TIP3     H2       HT       0.417000        1.0080           0
     70138 WT8      2630     TIP3     OH2      OT      -0.834000       15.9994           0
     70139 WT8      2630     TIP3     H1       HT       0.417000        1.0080           0
     70140 WT8      2630     TIP3     H2       HT       0.417000        1.0080           0
     70141 WT8      2634     TIP3     OH2      OT      -0.834000       15.9994           0
     70142 WT8      2634     TIP3     H1       HT       0.417000        1.0080           0
     70143 WT8      2634     TIP3     H2       HT       0.417000        1.0080           0
     70144 WT8      2669     TIP3     OH2      OT      -0.834000       15.9994           0
     70145 WT8      2669     TIP3     H1       HT       0.417000        1.0080           0
     70146 WT8      2669     TIP3     H2       HT       0.417000        1.0080           0
     70147 WT8      2673     TIP3     OH2      OT      -0.834000       15.9994           0
     70148 WT8      2673     TIP3     H1       HT       0.417000        1.0080           0
     70149 WT8      2673     TIP3     H2       HT       0.417000        1.0080           0
     70150 WT8      2689     TIP3     OH2      OT      -0.834000       15.9994           0
     70151 WT8      2689     TIP3     H1       HT       0.417000        1.0080           0
     70152 WT8      2689     TIP3     H2       HT       0.417000        1.0080           0
     70153 WT8      2690     TIP3     OH2      OT      -0.834000       15.9994           0
     70154 WT8      2690     TIP3     H1       HT       0.417000        1.0080           0
     70155 WT8      2690     TIP3     H2       HT       0.417000        1.0080           0
     70156 WT8      2691     TIP3     OH2      OT      -0.834000       15.9994           0
     70157 WT8      2691     TIP3     H1       HT       0.417000        1.0080           0
     70158 WT8      2691     TIP3     H2       HT       0.417000        1.0080           0
     70159 WT8      2694     TIP3     OH2      OT      -0.834000       15.9994           0
     70160 WT8      2694     TIP3     H1       HT       0.417000        1.0080           0
     70161 WT8      2694     TIP3     H2       HT       0.417000        1.0080           0
     70162 WT8      2697     TIP3     OH2      OT      -0.834000       15.9994           0
     70163 WT8      2697     TIP3     H1       HT       0.417000        1.0080           0
     70164 WT8      2697     TIP3     H2       HT       0.417000        1.0080           0
     70165 WT8      2709     TIP3     OH2      OT      -0.834000       15.9994           0
     70166 WT8      2709     TIP3     H1       HT       0.417000        1.0080           0
     70167 WT8      2709     TIP3     H2       HT       0.417000        1.0080           0
     70168 WT8      2713     TIP3     OH2      OT      -0.834000       15.9994           0
     70169 WT8      2713     TIP3     H1       HT       0.417000        1.0080           0
     70170 WT8      2713     TIP3     H2       HT       0.417000        1.0080           0
     70171 WT8      2714     TIP3     OH2      OT      -0.834000       15.9994           0
     70172 WT8      2714     TIP3     H1       HT       0.417000        1.0080           0
     70173 WT8      2714     TIP3     H2       HT       0.417000        1.0080           0
     70174 WT8      2715     TIP3     OH2      OT      -0.834000       15.9994           0
     70175 WT8      2715     TIP3     H1       HT       0.417000        1.0080           0
     70176 WT8      2715     TIP3     H2       HT       0.417000        1.0080           0
     70177 WT8      2732     TIP3     OH2      OT      -0.834000       15.9994           0
     70178 WT8      2732     TIP3     H1       HT       0.417000        1.0080           0
     70179 WT8      2732     TIP3     H2       HT       0.417000        1.0080           0
     70180 WT8      2734     TIP3     OH2      OT      -0.834000       15.9994           0
     70181 WT8      2734     TIP3     H1       HT       0.417000        1.0080           0
     70182 WT8      2734     TIP3     H2       HT       0.417000        1.0080           0
     70183 WT8      2735     TIP3     OH2      OT      -0.834000       15.9994           0
     70184 WT8      2735     TIP3     H1       HT       0.417000        1.0080           0
     70185 WT8      2735     TIP3     H2       HT       0.417000        1.0080           0
     70186 WT8      2758     TIP3     OH2      OT      -0.834000       15.9994           0
     70187 WT8      2758     TIP3     H1       HT       0.417000        1.0080           0
     70188 WT8      2758     TIP3     H2       HT       0.417000        1.0080           0
     70189 WT8      2771     TIP3     OH2      OT      -0.834000       15.9994           0
     70190 WT8      2771     TIP3     H1       HT       0.417000        1.0080           0
     70191 WT8      2771     TIP3     H2       HT       0.417000        1.0080           0
     70192 WT8      2776     TIP3     OH2      OT      -0.834000       15.9994           0
     70193 WT8      2776     TIP3     H1       HT       0.417000        1.0080           0
     70194 WT8      2776     TIP3     H2       HT       0.417000        1.0080           0
     70195 WT8      2778     TIP3     OH2      OT      -0.834000       15.9994           0
     70196 WT8      2778     TIP3     H1       HT       0.417000        1.0080           0
     70197 WT8      2778     TIP3     H2       HT       0.417000        1.0080           0
     70198 WT8      2793     TIP3     OH2      OT      -0.834000       15.9994           0
     70199 WT8      2793     TIP3     H1       HT       0.417000        1.0080           0
     70200 WT8      2793     TIP3     H2       HT       0.417000        1.0080           0
     70201 WT8      2794     TIP3     OH2      OT      -0.834000       15.9994           0
     70202 WT8      2794     TIP3     H1       HT       0.417000        1.0080           0
     70203 WT8      2794     TIP3     H2       HT       0.417000        1.0080           0
     70204 WT8      2815     TIP3     OH2      OT      -0.834000       15.9994           0
     70205 WT8      2815     TIP3     H1       HT       0.417000        1.0080           0
     70206 WT8      2815     TIP3     H2       HT       0.417000        1.0080           0
     70207 WT8      2817     TIP3     OH2      OT      -0.834000       15.9994           0
     70208 WT8      2817     TIP3     H1       HT       0.417000        1.0080           0
     70209 WT8      2817     TIP3     H2       HT       0.417000        1.0080           0
     70210 WT8      3010     TIP3     OH2      OT      -0.834000       15.9994           0
     70211 WT8      3010     TIP3     H1       HT       0.417000        1.0080           0
     70212 WT8      3010     TIP3     H2       HT       0.417000        1.0080           0
     70213 WT8      3012     TIP3     OH2      OT      -0.834000       15.9994           0
     70214 WT8      3012     TIP3     H1       HT       0.417000        1.0080           0
     70215 WT8      3012     TIP3     H2       HT       0.417000        1.0080           0
     70216 WT8      3027     TIP3     OH2      OT      -0.834000       15.9994           0
     70217 WT8      3027     TIP3     H1       HT       0.417000        1.0080           0
     70218 WT8      3027     TIP3     H2       HT       0.417000        1.0080           0
     70219 WT8      3049     TIP3     OH2      OT      -0.834000       15.9994           0
     70220 WT8      3049     TIP3     H1       HT       0.417000        1.0080           0
     70221 WT8      3049     TIP3     H2       HT       0.417000        1.0080           0
     70222 WT8      3068     TIP3     OH2      OT      -0.834000       15.9994           0
     70223 WT8      3068     TIP3     H1       HT       0.417000        1.0080           0
     70224 WT8      3068     TIP3     H2       HT       0.417000        1.0080           0
     70225 WT8      3072     TIP3     OH2      OT      -0.834000       15.9994           0
     70226 WT8      3072     TIP3     H1       HT       0.417000        1.0080           0
     70227 WT8      3072     TIP3     H2       HT       0.417000        1.0080           0
     70228 WT8      3073     TIP3     OH2      OT      -0.834000       15.9994           0
     70229 WT8      3073     TIP3     H1       HT       0.417000        1.0080           0
     70230 WT8      3073     TIP3     H2       HT       0.417000        1.0080           0
     70231 WT8      3086     TIP3     OH2      OT      -0.834000       15.9994           0
     70232 WT8      3086     TIP3     H1       HT       0.417000        1.0080           0
     70233 WT8      3086     TIP3     H2       HT       0.417000        1.0080           0
     70234 WT8      3091     TIP3     OH2      OT      -0.834000       15.9994           0
     70235 WT8      3091     TIP3     H1       HT       0.417000        1.0080           0
     70236 WT8      3091     TIP3     H2       HT       0.417000        1.0080           0
     70237 WT8      3096     TIP3     OH2      OT      -0.834000       15.9994           0
     70238 WT8      3096     TIP3     H1       HT       0.417000        1.0080           0
     70239 WT8      3096     TIP3     H2       HT       0.417000        1.0080           0
     70240 WT8      3108     TIP3     OH2      OT      -0.834000       15.9994           0
     70241 WT8      3108     TIP3     H1       HT       0.417000        1.0080           0
     70242 WT8      3108     TIP3     H2       HT       0.417000        1.0080           0
     70243 WT8      3109     TIP3     OH2      OT      -0.834000       15.9994           0
     70244 WT8      3109     TIP3     H1       HT       0.417000        1.0080           0
     70245 WT8      3109     TIP3     H2       HT       0.417000        1.0080           0
     70246 WT8      3113     TIP3     OH2      OT      -0.834000       15.9994           0
     70247 WT8      3113     TIP3     H1       HT       0.417000        1.0080           0
     70248 WT8      3113     TIP3     H2       HT       0.417000        1.0080           0
     70249 WT8      3115     TIP3     OH2      OT      -0.834000       15.9994           0
     70250 WT8      3115     TIP3     H1       HT       0.417000        1.0080           0
     70251 WT8      3115     TIP3     H2       HT       0.417000        1.0080           0
     70252 WT8      3131     TIP3     OH2      OT      -0.834000       15.9994           0
     70253 WT8      3131     TIP3     H1       HT       0.417000        1.0080           0
     70254 WT8      3131     TIP3     H2       HT       0.417000        1.0080           0
     70255 WT8      3134     TIP3     OH2      OT      -0.834000       15.9994           0
     70256 WT8      3134     TIP3     H1       HT       0.417000        1.0080           0
     70257 WT8      3134     TIP3     H2       HT       0.417000        1.0080           0
     70258 WT8      3140     TIP3     OH2      OT      -0.834000       15.9994           0
     70259 WT8      3140     TIP3     H1       HT       0.417000        1.0080           0
     70260 WT8      3140     TIP3     H2       HT       0.417000        1.0080           0
     70261 WT8      3150     TIP3     OH2      OT      -0.834000       15.9994           0
     70262 WT8      3150     TIP3     H1       HT       0.417000        1.0080           0
     70263 WT8      3150     TIP3     H2       HT       0.417000        1.0080           0
     70264 WT8      3152     TIP3     OH2      OT      -0.834000       15.9994           0
     70265 WT8      3152     TIP3     H1       HT       0.417000        1.0080           0
     70266 WT8      3152     TIP3     H2       HT       0.417000        1.0080           0
     70267 WT8      3173     TIP3     OH2      OT      -0.834000       15.9994           0
     70268 WT8      3173     TIP3     H1       HT       0.417000        1.0080           0
     70269 WT8      3173     TIP3     H2       HT       0.417000        1.0080           0
     70270 WT8      3177     TIP3     OH2      OT      -0.834000       15.9994           0
     70271 WT8      3177     TIP3     H1       HT       0.417000        1.0080           0
     70272 WT8      3177     TIP3     H2       HT       0.417000        1.0080           0
     70273 WT8      3192     TIP3     OH2      OT      -0.834000       15.9994           0
     70274 WT8      3192     TIP3     H1       HT       0.417000        1.0080           0
     70275 WT8      3192     TIP3     H2       HT       0.417000        1.0080           0
     70276 WT8      3196     TIP3     OH2      OT      -0.834000       15.9994           0
     70277 WT8      3196     TIP3     H1       HT       0.417000        1.0080           0
     70278 WT8      3196     TIP3     H2       HT       0.417000        1.0080           0
     70279 WT8      3198     TIP3     OH2      OT      -0.834000       15.9994           0
     70280 WT8      3198     TIP3     H1       HT       0.417000        1.0080           0
     70281 WT8      3198     TIP3     H2       HT       0.417000        1.0080           0
     70282 WT8      3215     TIP3     OH2      OT      -0.834000       15.9994           0
     70283 WT8      3215     TIP3     H1       HT       0.417000        1.0080           0
     70284 WT8      3215     TIP3     H2       HT       0.417000        1.0080           0
     70285 WT8      3218     TIP3     OH2      OT      -0.834000       15.9994           0
     70286 WT8      3218     TIP3     H1       HT       0.417000        1.0080           0
     70287 WT8      3218     TIP3     H2       HT       0.417000        1.0080           0
     70288 WT8      3219     TIP3     OH2      OT      -0.834000       15.9994           0
     70289 WT8      3219     TIP3     H1       HT       0.417000        1.0080           0
     70290 WT8      3219     TIP3     H2       HT       0.417000        1.0080           0
     70291 WT8      3223     TIP3     OH2      OT      -0.834000       15.9994           0
     70292 WT8      3223     TIP3     H1       HT       0.417000        1.0080           0
     70293 WT8      3223     TIP3     H2       HT       0.417000        1.0080           0
     70294 WT8      3234     TIP3     OH2      OT      -0.834000       15.9994           0
     70295 WT8      3234     TIP3     H1       HT       0.417000        1.0080           0
     70296 WT8      3234     TIP3     H2       HT       0.417000        1.0080           0
     70297 WT8      3237     TIP3     OH2      OT      -0.834000       15.9994           0
     70298 WT8      3237     TIP3     H1       HT       0.417000        1.0080           0
     70299 WT8      3237     TIP3     H2       HT       0.417000        1.0080           0
     70300 WT8      3242     TIP3     OH2      OT      -0.834000       15.9994           0
     70301 WT8      3242     TIP3     H1       HT       0.417000        1.0080           0
     70302 WT8      3242     TIP3     H2       HT       0.417000        1.0080           0
     70303 WT8      3244     TIP3     OH2      OT      -0.834000       15.9994           0
     70304 WT8      3244     TIP3     H1       HT       0.417000        1.0080           0
     70305 WT8      3244     TIP3     H2       HT       0.417000        1.0080           0
     70306 WT8      3262     TIP3     OH2      OT      -0.834000       15.9994           0
     70307 WT8      3262     TIP3     H1       HT       0.417000        1.0080           0
     70308 WT8      3262     TIP3     H2       HT       0.417000        1.0080           0
     70309 WT8      3275     TIP3     OH2      OT      -0.834000       15.9994           0
     70310 WT8      3275     TIP3     H1       HT       0.417000        1.0080           0
     70311 WT8      3275     TIP3     H2       HT       0.417000        1.0080           0
     70312 WT8      3303     TIP3     OH2      OT      -0.834000       15.9994           0
     70313 WT8      3303     TIP3     H1       HT       0.417000        1.0080           0
     70314 WT8      3303     TIP3     H2       HT       0.417000        1.0080           0
     70315 WT8      3304     TIP3     OH2      OT      -0.834000       15.9994           0
     70316 WT8      3304     TIP3     H1       HT       0.417000        1.0080           0
     70317 WT8      3304     TIP3     H2       HT       0.417000        1.0080           0
     70318 WT8      3426     TIP3     OH2      OT      -0.834000       15.9994           0
     70319 WT8      3426     TIP3     H1       HT       0.417000        1.0080           0
     70320 WT8      3426     TIP3     H2       HT       0.417000        1.0080           0
     70321 WT8      3442     TIP3     OH2      OT      -0.834000       15.9994           0
     70322 WT8      3442     TIP3     H1       HT       0.417000        1.0080           0
     70323 WT8      3442     TIP3     H2       HT       0.417000        1.0080           0
     70324 WT8      3447     TIP3     OH2      OT      -0.834000       15.9994           0
     70325 WT8      3447     TIP3     H1       HT       0.417000        1.0080           0
     70326 WT8      3447     TIP3     H2       HT       0.417000        1.0080           0
     70327 WT8      3526     TIP3     OH2      OT      -0.834000       15.9994           0
     70328 WT8      3526     TIP3     H1       HT       0.417000        1.0080           0
     70329 WT8      3526     TIP3     H2       HT       0.417000        1.0080           0
     70330 WT8      3527     TIP3     OH2      OT      -0.834000       15.9994           0
     70331 WT8      3527     TIP3     H1       HT       0.417000        1.0080           0
     70332 WT8      3527     TIP3     H2       HT       0.417000        1.0080           0
     70333 WT8      3534     TIP3     OH2      OT      -0.834000       15.9994           0
     70334 WT8      3534     TIP3     H1       HT       0.417000        1.0080           0
     70335 WT8      3534     TIP3     H2       HT       0.417000        1.0080           0
     70336 WT8      3545     TIP3     OH2      OT      -0.834000       15.9994           0
     70337 WT8      3545     TIP3     H1       HT       0.417000        1.0080           0
     70338 WT8      3545     TIP3     H2       HT       0.417000        1.0080           0
     70339 WT8      3548     TIP3     OH2      OT      -0.834000       15.9994           0
     70340 WT8      3548     TIP3     H1       HT       0.417000        1.0080           0
     70341 WT8      3548     TIP3     H2       HT       0.417000        1.0080           0
     70342 WT8      3554     TIP3     OH2      OT      -0.834000       15.9994           0
     70343 WT8      3554     TIP3     H1       HT       0.417000        1.0080           0
     70344 WT8      3554     TIP3     H2       HT       0.417000        1.0080           0
     70345 WT8      3575     TIP3     OH2      OT      -0.834000       15.9994           0
     70346 WT8      3575     TIP3     H1       HT       0.417000        1.0080           0
     70347 WT8      3575     TIP3     H2       HT       0.417000        1.0080           0
     70348 WT8      3596     TIP3     OH2      OT      -0.834000       15.9994           0
     70349 WT8      3596     TIP3     H1       HT       0.417000        1.0080           0
     70350 WT8      3596     TIP3     H2       HT       0.417000        1.0080           0
     70351 WT8      3597     TIP3     OH2      OT      -0.834000       15.9994           0
     70352 WT8      3597     TIP3     H1       HT       0.417000        1.0080           0
     70353 WT8      3597     TIP3     H2       HT       0.417000        1.0080           0
     70354 WT8      3614     TIP3     OH2      OT      -0.834000       15.9994           0
     70355 WT8      3614     TIP3     H1       HT       0.417000        1.0080           0
     70356 WT8      3614     TIP3     H2       HT       0.417000        1.0080           0
     70357 WT8      3619     TIP3     OH2      OT      -0.834000       15.9994           0
     70358 WT8      3619     TIP3     H1       HT       0.417000        1.0080           0
     70359 WT8      3619     TIP3     H2       HT       0.417000        1.0080           0
     70360 WT8      3641     TIP3     OH2      OT      -0.834000       15.9994           0
     70361 WT8      3641     TIP3     H1       HT       0.417000        1.0080           0
     70362 WT8      3641     TIP3     H2       HT       0.417000        1.0080           0
     70363 WT8      3650     TIP3     OH2      OT      -0.834000       15.9994           0
     70364 WT8      3650     TIP3     H1       HT       0.417000        1.0080           0
     70365 WT8      3650     TIP3     H2       HT       0.417000        1.0080           0
     70366 WT8      3651     TIP3     OH2      OT      -0.834000       15.9994           0
     70367 WT8      3651     TIP3     H1       HT       0.417000        1.0080           0
     70368 WT8      3651     TIP3     H2       HT       0.417000        1.0080           0
     70369 WT8      3653     TIP3     OH2      OT      -0.834000       15.9994           0
     70370 WT8      3653     TIP3     H1       HT       0.417000        1.0080           0
     70371 WT8      3653     TIP3     H2       HT       0.417000        1.0080           0
     70372 WT8      3660     TIP3     OH2      OT      -0.834000       15.9994           0
     70373 WT8      3660     TIP3     H1       HT       0.417000        1.0080           0
     70374 WT8      3660     TIP3     H2       HT       0.417000        1.0080           0
     70375 WT8      3661     TIP3     OH2      OT      -0.834000       15.9994           0
     70376 WT8      3661     TIP3     H1       HT       0.417000        1.0080           0
     70377 WT8      3661     TIP3     H2       HT       0.417000        1.0080           0
     70378 WT8      3662     TIP3     OH2      OT      -0.834000       15.9994           0
     70379 WT8      3662     TIP3     H1       HT       0.417000        1.0080           0
     70380 WT8      3662     TIP3     H2       HT       0.417000        1.0080           0
     70381 WT8      3925     TIP3     OH2      OT      -0.834000       15.9994           0
     70382 WT8      3925     TIP3     H1       HT       0.417000        1.0080           0
     70383 WT8      3925     TIP3     H2       HT       0.417000        1.0080           0
     70384 WT8      3933     TIP3     OH2      OT      -0.834000       15.9994           0
     70385 WT8      3933     TIP3     H1       HT       0.417000        1.0080           0
     70386 WT8      3933     TIP3     H2       HT       0.417000        1.0080           0
     70387 WT8      3951     TIP3     OH2      OT      -0.834000       15.9994           0
     70388 WT8      3951     TIP3     H1       HT       0.417000        1.0080           0
     70389 WT8      3951     TIP3     H2       HT       0.417000        1.0080           0
     70390 WT8      3976     TIP3     OH2      OT      -0.834000       15.9994           0
     70391 WT8      3976     TIP3     H1       HT       0.417000        1.0080           0
     70392 WT8      3976     TIP3     H2       HT       0.417000        1.0080           0
     70393 WT8      3977     TIP3     OH2      OT      -0.834000       15.9994           0
     70394 WT8      3977     TIP3     H1       HT       0.417000        1.0080           0
     70395 WT8      3977     TIP3     H2       HT       0.417000        1.0080           0
     70396 WT8      3991     TIP3     OH2      OT      -0.834000       15.9994           0
     70397 WT8      3991     TIP3     H1       HT       0.417000        1.0080           0
     70398 WT8      3991     TIP3     H2       HT       0.417000        1.0080           0
     70399 WT8      3994     TIP3     OH2      OT      -0.834000       15.9994           0
     70400 WT8      3994     TIP3     H1       HT       0.417000        1.0080           0
     70401 WT8      3994     TIP3     H2       HT       0.417000        1.0080           0
     70402 WT8      3995     TIP3     OH2      OT      -0.834000       15.9994           0
     70403 WT8      3995     TIP3     H1       HT       0.417000        1.0080           0
     70404 WT8      3995     TIP3     H2       HT       0.417000        1.0080           0
     70405 WT8      3996     TIP3     OH2      OT      -0.834000       15.9994           0
     70406 WT8      3996     TIP3     H1       HT       0.417000        1.0080           0
     70407 WT8      3996     TIP3     H2       HT       0.417000        1.0080           0
     70408 WT8      4009     TIP3     OH2      OT      -0.834000       15.9994           0
     70409 WT8      4009     TIP3     H1       HT       0.417000        1.0080           0
     70410 WT8      4009     TIP3     H2       HT       0.417000        1.0080           0
     70411 WT8      4012     TIP3     OH2      OT      -0.834000       15.9994           0
     70412 WT8      4012     TIP3     H1       HT       0.417000        1.0080           0
     70413 WT8      4012     TIP3     H2       HT       0.417000        1.0080           0
     70414 WT8      4017     TIP3     OH2      OT      -0.834000       15.9994           0
     70415 WT8      4017     TIP3     H1       HT       0.417000        1.0080           0
     70416 WT8      4017     TIP3     H2       HT       0.417000        1.0080           0
     70417 WT8      4036     TIP3     OH2      OT      -0.834000       15.9994           0
     70418 WT8      4036     TIP3     H1       HT       0.417000        1.0080           0
     70419 WT8      4036     TIP3     H2       HT       0.417000        1.0080           0
     70420 WT8      4037     TIP3     OH2      OT      -0.834000       15.9994           0
     70421 WT8      4037     TIP3     H1       HT       0.417000        1.0080           0
     70422 WT8      4037     TIP3     H2       HT       0.417000        1.0080           0
     70423 WT8      4039     TIP3     OH2      OT      -0.834000       15.9994           0
     70424 WT8      4039     TIP3     H1       HT       0.417000        1.0080           0
     70425 WT8      4039     TIP3     H2       HT       0.417000        1.0080           0
     70426 WT8      4074     TIP3     OH2      OT      -0.834000       15.9994           0
     70427 WT8      4074     TIP3     H1       HT       0.417000        1.0080           0
     70428 WT8      4074     TIP3     H2       HT       0.417000        1.0080           0
     70429 WT8      4077     TIP3     OH2      OT      -0.834000       15.9994           0
     70430 WT8      4077     TIP3     H1       HT       0.417000        1.0080           0
     70431 WT8      4077     TIP3     H2       HT       0.417000        1.0080           0
     70432 WT8      4081     TIP3     OH2      OT      -0.834000       15.9994           0
     70433 WT8      4081     TIP3     H1       HT       0.417000        1.0080           0
     70434 WT8      4081     TIP3     H2       HT       0.417000        1.0080           0
     70435 WT8      4104     TIP3     OH2      OT      -0.834000       15.9994           0
     70436 WT8      4104     TIP3     H1       HT       0.417000        1.0080           0
     70437 WT8      4104     TIP3     H2       HT       0.417000        1.0080           0
     70438 WT8      4141     TIP3     OH2      OT      -0.834000       15.9994           0
     70439 WT8      4141     TIP3     H1       HT       0.417000        1.0080           0
     70440 WT8      4141     TIP3     H2       HT       0.417000        1.0080           0
     70441 WT8      4356     TIP3     OH2      OT      -0.834000       15.9994           0
     70442 WT8      4356     TIP3     H1       HT       0.417000        1.0080           0
     70443 WT8      4356     TIP3     H2       HT       0.417000        1.0080           0
     70444 WT8      4394     TIP3     OH2      OT      -0.834000       15.9994           0
     70445 WT8      4394     TIP3     H1       HT       0.417000        1.0080           0
     70446 WT8      4394     TIP3     H2       HT       0.417000        1.0080           0
     70447 WT8      4480     TIP3     OH2      OT      -0.834000       15.9994           0
     70448 WT8      4480     TIP3     H1       HT       0.417000        1.0080           0
     70449 WT8      4480     TIP3     H2       HT       0.417000        1.0080           0
     70450 WT8      4501     TIP3     OH2      OT      -0.834000       15.9994           0
     70451 WT8      4501     TIP3     H1       HT       0.417000        1.0080           0
     70452 WT8      4501     TIP3     H2       HT       0.417000        1.0080           0
     70453 WT8      4515     TIP3     OH2      OT      -0.834000       15.9994           0
     70454 WT8      4515     TIP3     H1       HT       0.417000        1.0080           0
     70455 WT8      4515     TIP3     H2       HT       0.417000        1.0080           0
     70456 WT8      4519     TIP3     OH2      OT      -0.834000       15.9994           0
     70457 WT8      4519     TIP3     H1       HT       0.417000        1.0080           0
     70458 WT8      4519     TIP3     H2       HT       0.417000        1.0080           0
     70459 WT8      4523     TIP3     OH2      OT      -0.834000       15.9994           0
     70460 WT8      4523     TIP3     H1       HT       0.417000        1.0080           0
     70461 WT8      4523     TIP3     H2       HT       0.417000        1.0080           0
     70462 WT8      4537     TIP3     OH2      OT      -0.834000       15.9994           0
     70463 WT8      4537     TIP3     H1       HT       0.417000        1.0080           0
     70464 WT8      4537     TIP3     H2       HT       0.417000        1.0080           0
     70465 WT8      4798     TIP3     OH2      OT      -0.834000       15.9994           0
     70466 WT8      4798     TIP3     H1       HT       0.417000        1.0080           0
     70467 WT8      4798     TIP3     H2       HT       0.417000        1.0080           0
     70468 WT8      4809     TIP3     OH2      OT      -0.834000       15.9994           0
     70469 WT8      4809     TIP3     H1       HT       0.417000        1.0080           0
     70470 WT8      4809     TIP3     H2       HT       0.417000        1.0080           0
     70471 WT8      4837     TIP3     OH2      OT      -0.834000       15.9994           0
     70472 WT8      4837     TIP3     H1       HT       0.417000        1.0080           0
     70473 WT8      4837     TIP3     H2       HT       0.417000        1.0080           0
     70474 WT8      4849     TIP3     OH2      OT      -0.834000       15.9994           0
     70475 WT8      4849     TIP3     H1       HT       0.417000        1.0080           0
     70476 WT8      4849     TIP3     H2       HT       0.417000        1.0080           0
     70477 WT8      4857     TIP3     OH2      OT      -0.834000       15.9994           0
     70478 WT8      4857     TIP3     H1       HT       0.417000        1.0080           0
     70479 WT8      4857     TIP3     H2       HT       0.417000        1.0080           0
     70480 WT8      4981     TIP3     OH2      OT      -0.834000       15.9994           0
     70481 WT8      4981     TIP3     H1       HT       0.417000        1.0080           0
     70482 WT8      4981     TIP3     H2       HT       0.417000        1.0080           0
     70483 WT8      5320     TIP3     OH2      OT      -0.834000       15.9994           0
     70484 WT8      5320     TIP3     H1       HT       0.417000        1.0080           0
     70485 WT8      5320     TIP3     H2       HT       0.417000        1.0080           0
     70486 WT8      5341     TIP3     OH2      OT      -0.834000       15.9994           0
     70487 WT8      5341     TIP3     H1       HT       0.417000        1.0080           0
     70488 WT8      5341     TIP3     H2       HT       0.417000        1.0080           0
     70489 WT8      5356     TIP3     OH2      OT      -0.834000       15.9994           0
     70490 WT8      5356     TIP3     H1       HT       0.417000        1.0080           0
     70491 WT8      5356     TIP3     H2       HT       0.417000        1.0080           0
     70492 WT8      5393     TIP3     OH2      OT      -0.834000       15.9994           0
     70493 WT8      5393     TIP3     H1       HT       0.417000        1.0080           0
     70494 WT8      5393     TIP3     H2       HT       0.417000        1.0080           0
     70495 WT8      5827     TIP3     OH2      OT      -0.834000       15.9994           0
     70496 WT8      5827     TIP3     H1       HT       0.417000        1.0080           0
     70497 WT8      5827     TIP3     H2       HT       0.417000        1.0080           0
     70498 WT8      5901     TIP3     OH2      OT      -0.834000       15.9994           0
     70499 WT8      5901     TIP3     H1       HT       0.417000        1.0080           0
     70500 WT8      5901     TIP3     H2       HT       0.417000        1.0080           0
     70501 WT8      6158     TIP3     OH2      OT      -0.834000       15.9994           0
     70502 WT8      6158     TIP3     H1       HT       0.417000        1.0080           0
     70503 WT8      6158     TIP3     H2       HT       0.417000        1.0080           0
     70504 WT8      6240     TIP3     OH2      OT      -0.834000       15.9994           0
     70505 WT8      6240     TIP3     H1       HT       0.417000        1.0080           0
     70506 WT8      6240     TIP3     H2       HT       0.417000        1.0080           0
     70507 WT8      6671     TIP3     OH2      OT      -0.834000       15.9994           0
     70508 WT8      6671     TIP3     H1       HT       0.417000        1.0080           0
     70509 WT8      6671     TIP3     H2       HT       0.417000        1.0080           0
     70510 WT8      6726     TIP3     OH2      OT      -0.834000       15.9994           0
     70511 WT8      6726     TIP3     H1       HT       0.417000        1.0080           0
     70512 WT8      6726     TIP3     H2       HT       0.417000        1.0080           0
     70513 WT8      7141     TIP3     OH2      OT      -0.834000       15.9994           0
     70514 WT8      7141     TIP3     H1       HT       0.417000        1.0080           0
     70515 WT8      7141     TIP3     H2       HT       0.417000        1.0080           0
     70516 WT8      7222     TIP3     OH2      OT      -0.834000       15.9994           0
     70517 WT8      7222     TIP3     H1       HT       0.417000        1.0080           0
     70518 WT8      7222     TIP3     H2       HT       0.417000        1.0080           0
     70519 WT8      7479     TIP3     OH2      OT      -0.834000       15.9994           0
     70520 WT8      7479     TIP3     H1       HT       0.417000        1.0080           0
     70521 WT8      7479     TIP3     H2       HT       0.417000        1.0080           0
     70522 WT8      7510     TIP3     OH2      OT      -0.834000       15.9994           0
     70523 WT8      7510     TIP3     H1       HT       0.417000        1.0080           0
     70524 WT8      7510     TIP3     H2       HT       0.417000        1.0080           0
     70525 WT8      7563     TIP3     OH2      OT      -0.834000       15.9994           0
     70526 WT8      7563     TIP3     H1       HT       0.417000        1.0080           0
     70527 WT8      7563     TIP3     H2       HT       0.417000        1.0080           0
     70528 WT8      7583     TIP3     OH2      OT      -0.834000       15.9994           0
     70529 WT8      7583     TIP3     H1       HT       0.417000        1.0080           0
     70530 WT8      7583     TIP3     H2       HT       0.417000        1.0080           0
     70531 WT8      7607     TIP3     OH2      OT      -0.834000       15.9994           0
     70532 WT8      7607     TIP3     H1       HT       0.417000        1.0080           0
     70533 WT8      7607     TIP3     H2       HT       0.417000        1.0080           0
     70534 WT8      7630     TIP3     OH2      OT      -0.834000       15.9994           0
     70535 WT8      7630     TIP3     H1       HT       0.417000        1.0080           0
     70536 WT8      7630     TIP3     H2       HT       0.417000        1.0080           0
     70537 WT8      7631     TIP3     OH2      OT      -0.834000       15.9994           0
     70538 WT8      7631     TIP3     H1       HT       0.417000        1.0080           0
     70539 WT8      7631     TIP3     H2       HT       0.417000        1.0080           0
     70540 WT8      7707     TIP3     OH2      OT      -0.834000       15.9994           0
     70541 WT8      7707     TIP3     H1       HT       0.417000        1.0080           0
     70542 WT8      7707     TIP3     H2       HT       0.417000        1.0080           0
     70543 WT8      7739     TIP3     OH2      OT      -0.834000       15.9994           0
     70544 WT8      7739     TIP3     H1       HT       0.417000        1.0080           0
     70545 WT8      7739     TIP3     H2       HT       0.417000        1.0080           0
     70546 WT8      7945     TIP3     OH2      OT      -0.834000       15.9994           0
     70547 WT8      7945     TIP3     H1       HT       0.417000        1.0080           0
     70548 WT8      7945     TIP3     H2       HT       0.417000        1.0080           0
     70549 WT8      7961     TIP3     OH2      OT      -0.834000       15.9994           0
     70550 WT8      7961     TIP3     H1       HT       0.417000        1.0080           0
     70551 WT8      7961     TIP3     H2       HT       0.417000        1.0080           0
     70552 WT8      7985     TIP3     OH2      OT      -0.834000       15.9994           0
     70553 WT8      7985     TIP3     H1       HT       0.417000        1.0080           0
     70554 WT8      7985     TIP3     H2       HT       0.417000        1.0080           0
     70555 WT8      8023     TIP3     OH2      OT      -0.834000       15.9994           0
     70556 WT8      8023     TIP3     H1       HT       0.417000        1.0080           0
     70557 WT8      8023     TIP3     H2       HT       0.417000        1.0080           0
     70558 WT8      8029     TIP3     OH2      OT      -0.834000       15.9994           0
     70559 WT8      8029     TIP3     H1       HT       0.417000        1.0080           0
     70560 WT8      8029     TIP3     H2       HT       0.417000        1.0080           0
     70561 WT8      8046     TIP3     OH2      OT      -0.834000       15.9994           0
     70562 WT8      8046     TIP3     H1       HT       0.417000        1.0080           0
     70563 WT8      8046     TIP3     H2       HT       0.417000        1.0080           0
     70564 WT8      8064     TIP3     OH2      OT      -0.834000       15.9994           0
     70565 WT8      8064     TIP3     H1       HT       0.417000        1.0080           0
     70566 WT8      8064     TIP3     H2       HT       0.417000        1.0080           0
     70567 WT8      8068     TIP3     OH2      OT      -0.834000       15.9994           0
     70568 WT8      8068     TIP3     H1       HT       0.417000        1.0080           0
     70569 WT8      8068     TIP3     H2       HT       0.417000        1.0080           0
     70570 WT8      8364     TIP3     OH2      OT      -0.834000       15.9994           0
     70571 WT8      8364     TIP3     H1       HT       0.417000        1.0080           0
     70572 WT8      8364     TIP3     H2       HT       0.417000        1.0080           0
     70573 WT8      8403     TIP3     OH2      OT      -0.834000       15.9994           0
     70574 WT8      8403     TIP3     H1       HT       0.417000        1.0080           0
     70575 WT8      8403     TIP3     H2       HT       0.417000        1.0080           0
     70576 WT8      8411     TIP3     OH2      OT      -0.834000       15.9994           0
     70577 WT8      8411     TIP3     H1       HT       0.417000        1.0080           0
     70578 WT8      8411     TIP3     H2       HT       0.417000        1.0080           0
     70579 WT8      8425     TIP3     OH2      OT      -0.834000       15.9994           0
     70580 WT8      8425     TIP3     H1       HT       0.417000        1.0080           0
     70581 WT8      8425     TIP3     H2       HT       0.417000        1.0080           0
     70582 WT8      8441     TIP3     OH2      OT      -0.834000       15.9994           0
     70583 WT8      8441     TIP3     H1       HT       0.417000        1.0080           0
     70584 WT8      8441     TIP3     H2       HT       0.417000        1.0080           0
     70585 WT8      8466     TIP3     OH2      OT      -0.834000       15.9994           0
     70586 WT8      8466     TIP3     H1       HT       0.417000        1.0080           0
     70587 WT8      8466     TIP3     H2       HT       0.417000        1.0080           0
     70588 WT8      8468     TIP3     OH2      OT      -0.834000       15.9994           0
     70589 WT8      8468     TIP3     H1       HT       0.417000        1.0080           0
     70590 WT8      8468     TIP3     H2       HT       0.417000        1.0080           0
     70591 WT8      8491     TIP3     OH2      OT      -0.834000       15.9994           0
     70592 WT8      8491     TIP3     H1       HT       0.417000        1.0080           0
     70593 WT8      8491     TIP3     H2       HT       0.417000        1.0080           0
     70594 WT8      8528     TIP3     OH2      OT      -0.834000       15.9994           0
     70595 WT8      8528     TIP3     H1       HT       0.417000        1.0080           0
     70596 WT8      8528     TIP3     H2       HT       0.417000        1.0080           0
     70597 WT8      8534     TIP3     OH2      OT      -0.834000       15.9994           0
     70598 WT8      8534     TIP3     H1       HT       0.417000        1.0080           0
     70599 WT8      8534     TIP3     H2       HT       0.417000        1.0080           0
     70600 WT8      8536     TIP3     OH2      OT      -0.834000       15.9994           0
     70601 WT8      8536     TIP3     H1       HT       0.417000        1.0080           0
     70602 WT8      8536     TIP3     H2       HT       0.417000        1.0080           0
     70603 WT8      8548     TIP3     OH2      OT      -0.834000       15.9994           0
     70604 WT8      8548     TIP3     H1       HT       0.417000        1.0080           0
     70605 WT8      8548     TIP3     H2       HT       0.417000        1.0080           0
     70606 WT8      8556     TIP3     OH2      OT      -0.834000       15.9994           0
     70607 WT8      8556     TIP3     H1       HT       0.417000        1.0080           0
     70608 WT8      8556     TIP3     H2       HT       0.417000        1.0080           0
     70609 WT8      8760     TIP3     OH2      OT      -0.834000       15.9994           0
     70610 WT8      8760     TIP3     H1       HT       0.417000        1.0080           0
     70611 WT8      8760     TIP3     H2       HT       0.417000        1.0080           0
     70612 WT8      8780     TIP3     OH2      OT      -0.834000       15.9994           0
     70613 WT8      8780     TIP3     H1       HT       0.417000        1.0080           0
     70614 WT8      8780     TIP3     H2       HT       0.417000        1.0080           0
     70615 WT8      8801     TIP3     OH2      OT      -0.834000       15.9994           0
     70616 WT8      8801     TIP3     H1       HT       0.417000        1.0080           0
     70617 WT8      8801     TIP3     H2       HT       0.417000        1.0080           0
     70618 WT8      8822     TIP3     OH2      OT      -0.834000       15.9994           0
     70619 WT8      8822     TIP3     H1       HT       0.417000        1.0080           0
     70620 WT8      8822     TIP3     H2       HT       0.417000        1.0080           0
     70621 WT8      8829     TIP3     OH2      OT      -0.834000       15.9994           0
     70622 WT8      8829     TIP3     H1       HT       0.417000        1.0080           0
     70623 WT8      8829     TIP3     H2       HT       0.417000        1.0080           0
     70624 WT8      8843     TIP3     OH2      OT      -0.834000       15.9994           0
     70625 WT8      8843     TIP3     H1       HT       0.417000        1.0080           0
     70626 WT8      8843     TIP3     H2       HT       0.417000        1.0080           0
     70627 WT8      8845     TIP3     OH2      OT      -0.834000       15.9994           0
     70628 WT8      8845     TIP3     H1       HT       0.417000        1.0080           0
     70629 WT8      8845     TIP3     H2       HT       0.417000        1.0080           0
     70630 WT8      8865     TIP3     OH2      OT      -0.834000       15.9994           0
     70631 WT8      8865     TIP3     H1       HT       0.417000        1.0080           0
     70632 WT8      8865     TIP3     H2       HT       0.417000        1.0080           0
     70633 WT8      8869     TIP3     OH2      OT      -0.834000       15.9994           0
     70634 WT8      8869     TIP3     H1       HT       0.417000        1.0080           0
     70635 WT8      8869     TIP3     H2       HT       0.417000        1.0080           0
     70636 WT8      8887     TIP3     OH2      OT      -0.834000       15.9994           0
     70637 WT8      8887     TIP3     H1       HT       0.417000        1.0080           0
     70638 WT8      8887     TIP3     H2       HT       0.417000        1.0080           0
     70639 WT8      8895     TIP3     OH2      OT      -0.834000       15.9994           0
     70640 WT8      8895     TIP3     H1       HT       0.417000        1.0080           0
     70641 WT8      8895     TIP3     H2       HT       0.417000        1.0080           0
     70642 WT8      8903     TIP3     OH2      OT      -0.834000       15.9994           0
     70643 WT8      8903     TIP3     H1       HT       0.417000        1.0080           0
     70644 WT8      8903     TIP3     H2       HT       0.417000        1.0080           0
     70645 WT8      8905     TIP3     OH2      OT      -0.834000       15.9994           0
     70646 WT8      8905     TIP3     H1       HT       0.417000        1.0080           0
     70647 WT8      8905     TIP3     H2       HT       0.417000        1.0080           0
     70648 WT8      8931     TIP3     OH2      OT      -0.834000       15.9994           0
     70649 WT8      8931     TIP3     H1       HT       0.417000        1.0080           0
     70650 WT8      8931     TIP3     H2       HT       0.417000        1.0080           0
     70651 WT8      8932     TIP3     OH2      OT      -0.834000       15.9994           0
     70652 WT8      8932     TIP3     H1       HT       0.417000        1.0080           0
     70653 WT8      8932     TIP3     H2       HT       0.417000        1.0080           0
     70654 WT8      8935     TIP3     OH2      OT      -0.834000       15.9994           0
     70655 WT8      8935     TIP3     H1       HT       0.417000        1.0080           0
     70656 WT8      8935     TIP3     H2       HT       0.417000        1.0080           0
     70657 WT8      8949     TIP3     OH2      OT      -0.834000       15.9994           0
     70658 WT8      8949     TIP3     H1       HT       0.417000        1.0080           0
     70659 WT8      8949     TIP3     H2       HT       0.417000        1.0080           0
     70660 WT8      8952     TIP3     OH2      OT      -0.834000       15.9994           0
     70661 WT8      8952     TIP3     H1       HT       0.417000        1.0080           0
     70662 WT8      8952     TIP3     H2       HT       0.417000        1.0080           0
     70663 WT8      8956     TIP3     OH2      OT      -0.834000       15.9994           0
     70664 WT8      8956     TIP3     H1       HT       0.417000        1.0080           0
     70665 WT8      8956     TIP3     H2       HT       0.417000        1.0080           0
     70666 WT8      8970     TIP3     OH2      OT      -0.834000       15.9994           0
     70667 WT8      8970     TIP3     H1       HT       0.417000        1.0080           0
     70668 WT8      8970     TIP3     H2       HT       0.417000        1.0080           0
     70669 WT8      8977     TIP3     OH2      OT      -0.834000       15.9994           0
     70670 WT8      8977     TIP3     H1       HT       0.417000        1.0080           0
     70671 WT8      8977     TIP3     H2       HT       0.417000        1.0080           0
     70672 WT8      8988     TIP3     OH2      OT      -0.834000       15.9994           0
     70673 WT8      8988     TIP3     H1       HT       0.417000        1.0080           0
     70674 WT8      8988     TIP3     H2       HT       0.417000        1.0080           0
     70675 WT8      9082     TIP3     OH2      OT      -0.834000       15.9994           0
     70676 WT8      9082     TIP3     H1       HT       0.417000        1.0080           0
     70677 WT8      9082     TIP3     H2       HT       0.417000        1.0080           0
     70678 WT8      9096     TIP3     OH2      OT      -0.834000       15.9994           0
     70679 WT8      9096     TIP3     H1       HT       0.417000        1.0080           0
     70680 WT8      9096     TIP3     H2       HT       0.417000        1.0080           0
     70681 WT8      9226     TIP3     OH2      OT      -0.834000       15.9994           0
     70682 WT8      9226     TIP3     H1       HT       0.417000        1.0080           0
     70683 WT8      9226     TIP3     H2       HT       0.417000        1.0080           0
     70684 WT8      9241     TIP3     OH2      OT      -0.834000       15.9994           0
     70685 WT8      9241     TIP3     H1       HT       0.417000        1.0080           0
     70686 WT8      9241     TIP3     H2       HT       0.417000        1.0080           0
     70687 WT8      9250     TIP3     OH2      OT      -0.834000       15.9994           0
     70688 WT8      9250     TIP3     H1       HT       0.417000        1.0080           0
     70689 WT8      9250     TIP3     H2       HT       0.417000        1.0080           0
     70690 ION      1        SOD      SOD      SOD      1.000000       22.9898           0
     70691 ION      2        SOD      SOD      SOD      1.000000       22.9898           0
     70692 ION      3        SOD      SOD      SOD      1.000000       22.9898           0
     70693 ION      4        SOD      SOD      SOD      1.000000       22.9898           0
     70694 ION      5        SOD      SOD      SOD      1.000000       22.9898           0
     70695 ION      6        SOD      SOD      SOD      1.000000       22.9898           0
     70696 ION      7        SOD      SOD      SOD      1.000000       22.9898           0
     70697 ION      8        SOD      SOD      SOD      1.000000       22.9898           0
     70698 ION      9        SOD      SOD      SOD      1.000000       22.9898           0

   47453 !NBOND: bonds
         1         3         1         2         1         7         1         8
         3         4         5         6         5        18         5         7
         8         9         8        10         8        12        10        11
        12        13        12        14        12        15        14        79
        15        16        15        17        15         5        17        22
        18        19        18        20        18        21        22        23
        22        26        22        27        24        25        24        37
        24        26        27        28        27        29        27        30
        29        42        30        31        30        32        30        33
        32        71        33        34        33        35        33        24
        35        36        37        38        37        39        37        40
        40        41        42        43        42        46        42        47
        44        45        44        59        44        46        47        48
        47        49        47        51        49        50        51        52
        51        53        51        55        53        54        55        56
        55        57        55        44        57        58        59        60
        59        61        59        62        63        66        63        64
        63        65        63        68        66        67        68        69
        68        70        68        74        70        71        71        72
        71        73        74        75        74        77        74        76
        77        78        79        80        79        83        79        84
        81        82        81        95        81        83        84        85
        84        86        84        88        86        87        88        89
        88        90        88        92        90        91        92        93
        92        94        92        81        94       100        95        96
        95        97        95        98        98        99       100       101
       100       104       100       105       102       103       102       115
       102       104       105       106       105       107       105       109
       107       108       109       110       109       111       109       112
       111       176       112       113       112       114       112       102
       114       119       115       116       115       117       115       118
       119       120       119       123       119       124       121       122
       121       134       121       123       124       125       124       126
       124       127       126       139       127       128       127       129
       127       130       129       168       130       131       130       132
       130       121       132       133       134       135       134       136
       134       137       137       138       139       140       139       143
       139       144       141       142       141       156       141       143
       144       145       144       146       144       148       146       147
       148       149       148       150       148       152       150       151
       152       153       152       154       152       141       154       155
       156       157       156       158       156       159       160       163
       160       161       160       162       160       165       163       164
       165       166       165       167       165       171       167       168
       168       169       168       170       171       172       171       174
       171       173       174       175       176       177       176       180
       176       181       178       179       178       192       178       180
       181       182       181       183       181       185       183       184
       185       186       185       187       185       189       187       188
       189       190       189       191       189       178       191       197
       192       193       192       194       192       195       195       196
       197       198       197       201       197       202       199       200
       199       212       199       201       202       203       202       204
       202       206       204       205       206       207       206       208
       206       209       208       273       209       210       209       211
       209       199       211       216       212       213       212       214
       212       215       216       217       216       220       216       221
       218       219       218       231       218       220       221       222
       221       223       221       224       223       236       224       225
       224       226       224       227       226       265       227       228
       227       229       227       218       229       230       231       232
       231       233       231       234       234       235       236       237
       236       240       236       241       238       239       238       253
       238       240       241       242       241       243       241       245
       243       244       245       246       245       247       245       249
       247       248       249       250       249       251       249       238
       251       252       253       254       253       255       253       256
       257       260       257       258       257       259       257       262
       260       261       262       263       262       264       262       268
       264       265       265       266       265       267       268       269
       268       271       268       270       271       272       273       274
       273       277       273       278       275       276       275       289
       275       277       278       279       278       280       278       282
       280       281       282       283       282       284       282       286
       284       285       286       287       286       288       286       275
       288       294       289       290       289       291       289       292
       292       293       294       295       294       298       294       299
       296       297       296       309       296       298       299       300
       299       301       299       303       301       302       303       304
       303       305       303       306       305       370       306       307
       306       308       306       296       308       313       309       310
       309       311       309       312       313       314       313       317
       313       318       315       316       315       328       315       317
       318       319       318       320       318       321       320       333
       321       322       321       323       321       324       323       362
       324       325       324       326       324       315       326       327
       328       329       328       330       328       331       331       332
       333       334       333       337       333       338       335       336
       335       350       335       337       338       339       338       340
       338       342       340       341       342       343       342       344
       342       346       344       345       346       347       346       348
       346       335       348       349       350       351       350       352
       350       353       354       357       354       355       354       356
       354       359       357       358       359       360       359       361
       359       365       361       362       362       363       362       364
       365       366       365       368       365       367       368       369
       370       371       370       374       370       375       372       373
       372       386       372       374       375       376       375       377
       375       379       377       378       379       380       379       381
       379       383       381       382       383       384       383       385
       383       372       385       391       386       387       386       388
       386       389       389       390       391       392       391       395
       391       396       393       394       393       406       393       395
       396       397       396       398       396       400       398       399
       400       401       400       402       400       403       402       467
       403       404       403       405       403       393       405       410
       406       407       406       408       406       409       410       411
       410       414       410       415       412       413       412       425
       412       414       415       416       415       417       415       418
       417       430       418       419       418       420       418       421
       420       459       421       422       421       423       421       412
       423       424       425       426       425       427       425       428
       428       429       430       431       430       434       430       435
       432       433       432       447       432       434       435       436
       435       437       435       439       437       438       439       440
       439       441       439       443       441       442       443       444
       443       445       443       432       445       446       447       448
       447       449       447       450       451       454       451       452
       451       453       451       456       454       455       456       457
       456       458       456       462       458       459       459       460
       459       461       462       463       462       465       462       464
       465       466       467       468       467       471       467       472
       469       470       469       483       469       471       472       473
       472       474       472       476       474       475       476       477
       476       478       476       480       478       479       480       481
       480       482       480       469       482       488       483       484
       483       485       483       486       486       487       488       489
       488       492       488       493       490       491       490       503
       490       492       493       494       493       495       493       497
       495       496       497       498       497       499       497       500
       499       564       500       501       500       502       500       490
       502       507       503       504       503       505       503       506
       507       508       507       511       507       512       509       510
       509       522       509       511       512       513       512       514
       512       515       514       527       515       516       515       517
       515       518       517       556       518       519       518       520
       518       509       520       521       522       523       522       524
       522       525       525       526       527       528       527       531
       527       532       529       530       529       544       529       531
       532       533       532       534       532       536       534       535
       536       537       536       538       536       540       538       539
       540       541       540       542       540       529       542       543
       544       545       544       546       544       547       548       551
       548       549       548       550       548       553       551       552
       553       554       553       555       553       559       555       556
       556       557       556       558       559       560       559       562
       559       561       562       563       564       565       564       568
       564       569       566       567       566       580       566       568
       569       570       569       571       569       573       571       572
       573       574       573       575       573       577       575       576
       577       578       577       579       577       566       579       585
       580       581       580       582       580       583       583       584
       585       586       585       589       585       590       587       588
       587       600       587       589       590       591       590       592
       590       594       592       593       594       595       594       596
       594       597       596       661       597       598       597       599
       597       587       599       604       600       601       600       602
       600       603       604       605       604       608       604       609
       606       607       606       619       606       608       609       610
       609       611       609       612       611       624       612       613
       612       614       612       615       614       653       615       616
       615       617       615       606       617       618       619       620
       619       621       619       622       622       623       624       625
       624       628       624       629       626       627       626       641
       626       628       629       630       629       631       629       633
       631       632       633       634       633       635       633       637
       635       636       637       638       637       639       637       626
       639       640       641       642       641       643       641       644
       645       648       645       646       645       647       645       650
       648       649       650       651       650       652       650       656
       652       653       653       654       653       655       656       657
       656       659       656       658       659       660       661       662
       661       665       661       666       663       664       663       677
       663       665       666       667       666       668       666       670
       668       669       670       671       670       672       670       674
       672       673       674       675       674       676       674       663
       676       682       677       678       677       679       677       680
       680       681       682       683       682       686       682       687
       684       685       684       697       684       686       687       688
       687       689       687       691       689       690       691       692
       691       693       691       694       693       758       694       695
       694       696       694       684       696       701       697       698
       697       699       697       700       701       702       701       705
       701       706       703       704       703       716       703       705
       706       707       706       708       706       709       708       721
       709       710       709       711       709       712       711       750
       712       713       712       714       712       703       714       715
       716       717       716       718       716       719       719       720
       721       722       721       725       721       726       723       724
       723       738       723       725       726       727       726       728
       726       730       728       729       730       731       730       732
       730       734       732       733       734       735       734       736
       734       723       736       737       738       739       738       740
       738       741       742       745       742       743       742       744
       742       747       745       746       747       748       747       749
       747       753       749       750       750       751       750       752
       753       754       753       756       753       755       756       757
       758       759       758       762       758       763       760       761
       760       774       760       762       763       764       763       765
       763       767       765       766       767       768       767       769
       767       771       769       770       771       772       771       773
       771       760       773       779       774       775       774       776
       774       777       777       778       779       780       779       783
       779       784       781       782       781       794       781       783
       784       785       784       786       784       788       786       787
       788       789       788       790       788       791       790       855
       791       792       791       793       791       781       793       798
       794       795       794       796       794       797       798       799
       798       802       798       803       800       801       800       813
       800       802       803       804       803       805       803       806
       805       818       806       807       806       808       806       809
       808       847       809       810       809       811       809       800
       811       812       813       814       813       815       813       816
       816       817       818       819       818       822       818       823
       820       821       820       835       820       822       823       824
       823       825       823       827       825       826       827       828
       827       829       827       831       829       830       831       832
       831       833       831       820       833       834       835       836
       835       837       835       838       839       842       839       840
       839       841       839       844       842       843       844       845
       844       846       844       850       846       847       847       848
       847       849       850       851       850       853       850       852
       853       854       855       856       855       859       855       860
       857       858       857       872       857       859       860       861
       860       862       860       864       862       863       864       865
       864       866       864       868       866       867       868       869
       868       870       868       857       870       871       872       873
       872       874       872       875       875       876       877       878
       877       879       880       881       880       882       883       884
       883       885       886       887       886       888       889       890
       889       891       892       893       892       894       895       896
       895       897       898       899       898       900       901       902
       901       903       904       905       904       906       907       908
       907       909       910       911       910       912       913       914
       913       915       916       917       916       918       919       920
       919       921       922       923       922       924       925       926
       925       927       928       929       928       930       931       932
       931       933       934       935       934       936       937       938
       937       939       940       941       940       942       943       944
       943       945       946       947       946       948       949       950
       949       951       952       953       952       954       955       956
       955       957       958       959       958       960       961       962
       961       963       964       965       964       966       967       968
       967       969       970       971       970       972       973       974
       973       975       976       977       976       978       979       980
       979       981       982       983       982       984       985       986
       985       987       988       989       988       990       991       992
       991       993       994       995       994       996       997       998
       997       999      1000      1001      1000      1002      1003      1004
      1003      1005      1006      1007      1006      1008      1009      1010
      1009      1011      1012      1013      1012      1014      1015      1016
      1015      1017      1018      1019      1018      1020      1021      1022
      1021      1023      1024      1025      1024      1026      1027      1028
      1027      1029      1030      1031      1030      1032      1033      1034
      1033      1035      1036      1037      1036      1038      1039      1040
      1039      1041      1042      1043      1042      1044      1045      1046
      1045      1047      1048      1049      1048      1050      1051      1052
      1051      1053      1054      1055      1054      1056      1057      1058
      1057      1059      1060      1061      1060      1062      1063      1064
      1063      1065      1066      1067      1066      1068      1069      1070
      1069      1071      1072      1073      1072      1074      1075      1076
      1075      1077      1078      1079      1078      1080      1081      1082
      1081      1083      1084      1085      1084      1086      1087      1088
      1087      1089      1090      1091      1090      1092      1093      1094
      1093      1095      1096      1097      1096      1098      1099      1100
      1099      1101      1102      1103      1102      1104      1105      1106
      1105      1107      1108      1109      1108      1110      1111      1112
      1111      1113      1114      1115      1114      1116      1117      1118
      1117      1119      1120      1121      1120      1122      1123      1124
      1123      1125      1126      1127      1126      1128      1129      1130
      1129      1131      1132      1133      1132      1134      1135      1136
      1135      1137      1138      1139      1138      1140      1141      1142
      1141      1143      1144      1145      1144      1146      1147      1148
      1147      1149      1150      1151      1150      1152      1153      1154
      1153      1155      1156      1157      1156      1158      1159      1160
      1159      1161      1162      1163      1162      1164      1165      1166
      1165      1167      1168      1169      1168      1170      1171      1172
      1171      1173      1174      1175      1174      1176      1177      1178
      1177      1179      1180      1181      1180      1182      1183      1184
      1183      1185      1186      1187      1186      1188      1189      1190
      1189      1191      1192      1193      1192      1194      1195      1196
      1195      1197      1198      1199      1198      1200      1201      1202
      1201      1203      1204      1205      1204      1206      1207      1208
      1207      1209      1210      1211      1210      1212      1213      1214
      1213      1215      1216      1217      1216      1218      1219      1220
      1219      1221      1222      1223      1222      1224      1225      1226
      1225      1227      1228      1229      1228      1230      1231      1232
      1231      1233      1234      1235      1234      1236      1237      1238
      1237      1239      1240      1241      1240      1242      1243      1244
      1243      1245      1246      1247      1246      1248      1249      1250
      1249      1251      1252      1253      1252      1254      1255      1256
      1255      1257      1258      1259      1258      1260      1261      1262
      1261      1263      1264      1265      1264      1266      1267      1268
      1267      1269      1270      1271      1270      1272      1273      1274
      1273      1275      1276      1277      1276      1278      1279      1280
      1279      1281      1282      1283      1282      1284      1285      1286
      1285      1287      1288      1289      1288      1290      1291      1292
      1291      1293      1294      1295      1294      1296      1297      1298
      1297      1299      1300      1301      1300      1302      1303      1304
      1303      1305      1306      1307      1306      1308      1309      1310
      1309      1311      1312      1313      1312      1314      1315      1316
      1315      1317      1318      1319      1318      1320      1321      1322
      1321      1323      1324      1325      1324      1326      1327      1328
      1327      1329      1330      1331      1330      1332      1333      1334
      1333      1335      1336      1337      1336      1338      1339      1340
      1339      1341      1342      1343      1342      1344      1345      1346
      1345      1347      1348      1349      1348      1350      1351      1352
      1351      1353      1354      1355      1354      1356      1357      1358
      1357      1359      1360      1361      1360      1362      1363      1364
      1363      1365      1366      1367      1366      1368      1369      1370
      1369      1371      1372      1373      1372      1374      1375      1376
      1375      1377      1378      1379      1378      1380      1381      1382
      1381      1383      1384      1385      1384      1386      1387      1388
      1387      1389      1390      1391      1390      1392      1393      1394
      1393      1395      1396      1397      1396      1398      1399      1400
      1399      1401      1402      1403      1402      1404      1405      1406
      1405      1407      1408      1409      1408      1410      1411      1412
      1411      1413      1414      1415      1414      1416      1417      1418
      1417      1419      1420      1421      1420      1422      1423      1424
      1423      1425      1426      1427      1426      1428      1429      1430
      1429      1431      1432      1433      1432      1434      1435      1436
      1435      1437      1438      1439      1438      1440      1441      1442
      1441      1443      1444      1445      1444      1446      1447      1448
      1447      1449      1450      1451      1450      1452      1453      1454
      1453      1455      1456      1457      1456      1458      1459      1460
      1459      1461      1462      1463      1462      1464      1465      1466
      1465      1467      1468      1469      1468      1470      1471      1472
      1471      1473      1474      1475      1474      1476      1477      1478
      1477      1479      1480      1481      1480      1482      1483      1484
      1483      1485      1486      1487      1486      1488      1489      1490
      1489      1491      1492      1493      1492      1494      1495      1496
      1495      1497      1498      1499      1498      1500      1501      1502
      1501      1503      1504      1505      1504      1506      1507      1508
      1507      1509      1510      1511      1510      1512      1513      1514
      1513      1515      1516      1517      1516      1518      1519      1520
      1519      1521      1522      1523      1522      1524      1525      1526
      1525      1527      1528      1529      1528      1530      1531      1532
      1531      1533      1534      1535      1534      1536      1537      1538
      1537      1539      1540      1541      1540      1542      1543      1544
      1543      1545      1546      1547      1546      1548      1549      1550
      1549      1551      1552      1553      1552      1554      1555      1556
      1555      1557      1558      1559      1558      1560      1561      1562
      1561      1563      1564      1565      1564      1566      1567      1568
      1567      1569      1570      1571      1570      1572      1573      1574
      1573      1575      1576      1577      1576      1578      1579      1580
      1579      1581      1582      1583      1582      1584      1585      1586
      1585      1587      1588      1589      1588      1590      1591      1592
      1591      1593      1594      1595      1594      1596      1597      1598
      1597      1599      1600      1601      1600      1602      1603      1604
      1603      1605      1606      1607      1606      1608      1609      1610
      1609      1611      1612      1613      1612      1614      1615      1616
      1615      1617      1618      1619      1618      1620      1621      1622
      1621      1623      1624      1625      1624      1626      1627      1628
      1627      1629      1630      1631      1630      1632      1633      1634
      1633      1635      1636      1637      1636      1638      1639      1640
      1639      1641      1642      1643      1642      1644      1645      1646
      1645      1647      1648      1649      1648      1650      1651      1652
      1651      1653      1654      1655      1654      1656      1657      1658
      1657      1659      1660      1661      1660      1662      1663      1664
      1663      1665      1666      1667      1666      1668      1669      1670
      1669      1671      1672      1673      1672      1674      1675      1676
      1675      1677      1678      1679      1678      1680      1681      1682
      1681      1683      1684      1685      1684      1686      1687      1688
      1687      1689      1690      1691      1690      1692      1693      1694
      1693      1695      1696      1697      1696      1698      1699      1700
      1699      1701      1702      1703      1702      1704      1705      1706
      1705      1707      1708      1709      1708      1710      1711      1712
      1711      1713      1714      1715      1714      1716      1717      1718
      1717      1719      1720      1721      1720      1722      1723      1724
      1723      1725      1726      1727      1726      1728      1729      1730
      1729      1731      1732      1733      1732      1734      1735      1736
      1735      1737      1738      1739      1738      1740      1741      1742
      1741      1743      1744      1745      1744      1746      1747      1748
      1747      1749      1750      1751      1750      1752      1753      1754
      1753      1755      1756      1757      1756      1758      1759      1760
      1759      1761      1762      1763      1762      1764      1765      1766
      1765      1767      1768      1769      1768      1770      1771      1772
      1771      1773      1774      1775      1774      1776      1777      1778
      1777      1779      1780      1781      1780      1782      1783      1784
      1783      1785      1786      1787      1786      1788      1789      1790
      1789      1791      1792      1793      1792      1794      1795      1796
      1795      1797      1798      1799      1798      1800      1801      1802
      1801      1803      1804      1805      1804      1806      1807      1808
      1807      1809      1810      1811      1810      1812      1813      1814
      1813      1815      1816      1817      1816      1818      1819      1820
      1819      1821      1822      1823      1822      1824      1825      1826
      1825      1827      1828      1829      1828      1830      1831      1832
      1831      1833      1834      1835      1834      1836      1837      1838
      1837      1839      1840      1841      1840      1842      1843      1844
      1843      1845      1846      1847      1846      1848      1849      1850
      1849      1851      1852      1853      1852      1854      1855      1856
      1855      1857      1858      1859      1858      1860      1861      1862
      1861      1863      1864      1865      1864      1866      1867      1868
      1867      1869      1870      1871      1870      1872      1873      1874
      1873      1875      1876      1877      1876      1878      1879      1880
      1879      1881      1882      1883      1882      1884      1885      1886
      1885      1887      1888      1889      1888      1890      1891      1892
      1891      1893      1894      1895      1894      1896      1897      1898
      1897      1899      1900      1901      1900      1902      1903      1904
      1903      1905      1906      1907      1906      1908      1909      1910
      1909      1911      1912      1913      1912      1914      1915      1916
      1915      1917      1918      1919      1918      1920      1921      1922
      1921      1923      1924      1925      1924      1926      1927      1928
      1927      1929      1930      1931      1930      1932      1933      1934
      1933      1935      1936      1937      1936      1938      1939      1940
      1939      1941      1942      1943      1942      1944      1945      1946
      1945      1947      1948      1949      1948      1950      1951      1952
      1951      1953      1954      1955      1954      1956      1957      1958
      1957      1959      1960      1961      1960      1962      1963      1964
      1963      1965      1966      1967      1966      1968      1969      1970
      1969      1971      1972      1973      1972      1974      1975      1976
      1975      1977      1978      1979      1978      1980      1981      1982
      1981      1983      1984      1985      1984      1986      1987      1988
      1987      1989      1990      1991      1990      1992      1993      1994
      1993      1995      1996      1997      1996      1998      1999      2000
      1999      2001      2002      2003      2002      2004      2005      2006
      2005      2007      2008      2009      2008      2010      2011      2012
      2011      2013      2014      2015      2014      2016      2017      2018
      2017      2019      2020      2021      2020      2022      2023      2024
      2023      2025      2026      2027      2026      2028      2029      2030
      2029      2031      2032      2033      2032      2034      2035      2036
      2035      2037      2038      2039      2038      2040      2041      2042
      2041      2043      2044      2045      2044      2046      2047      2048
      2047      2049      2050      2051      2050      2052      2053      2054
      2053      2055      2056      2057      2056      2058      2059      2060
      2059      2061      2062      2063      2062      2064      2065      2066
      2065      2067      2068      2069      2068      2070      2071      2072
      2071      2073      2074      2075      2074      2076      2077      2078
      2077      2079      2080      2081      2080      2082      2083      2084
      2083      2085      2086      2087      2086      2088      2089      2090
      2089      2091      2092      2093      2092      2094      2095      2096
      2095      2097      2098      2099      2098      2100      2101      2102
      2101      2103      2104      2105      2104      2106      2107      2108
      2107      2109      2110      2111      2110      2112      2113      2114
      2113      2115      2116      2117      2116      2118      2119      2120
      2119      2121      2122      2123      2122      2124      2125      2126
      2125      2127      2128      2129      2128      2130      2131      2132
      2131      2133      2134      2135      2134      2136      2137      2138
      2137      2139      2140      2141      2140      2142      2143      2144
      2143      2145      2146      2147      2146      2148      2149      2150
      2149      2151      2152      2153      2152      2154      2155      2156
      2155      2157      2158      2159      2158      2160      2161      2162
      2161      2163      2164      2165      2164      2166      2167      2168
      2167      2169      2170      2171      2170      2172      2173      2174
      2173      2175      2176      2177      2176      2178      2179      2180
      2179      2181      2182      2183      2182      2184      2185      2186
      2185      2187      2188      2189      2188      2190      2191      2192
      2191      2193      2194      2195      2194      2196      2197      2198
      2197      2199      2200      2201      2200      2202      2203      2204
      2203      2205      2206      2207      2206      2208      2209      2210
      2209      2211      2212      2213      2212      2214      2215      2216
      2215      2217      2218      2219      2218      2220      2221      2222
      2221      2223      2224      2225      2224      2226      2227      2228
      2227      2229      2230      2231      2230      2232      2233      2234
      2233      2235      2236      2237      2236      2238      2239      2240
      2239      2241      2242      2243      2242      2244      2245      2246
      2245      2247      2248      2249      2248      2250      2251      2252
      2251      2253      2254      2255      2254      2256      2257      2258
      2257      2259      2260      2261      2260      2262      2263      2264
      2263      2265      2266      2267      2266      2268      2269      2270
      2269      2271      2272      2273      2272      2274      2275      2276
      2275      2277      2278      2279      2278      2280      2281      2282
      2281      2283      2284      2285      2284      2286      2287      2288
      2287      2289      2290      2291      2290      2292      2293      2294
      2293      2295      2296      2297      2296      2298      2299      2300
      2299      2301      2302      2303      2302      2304      2305      2306
      2305      2307      2308      2309      2308      2310      2311      2312
      2311      2313      2314      2315      2314      2316      2317      2318
      2317      2319      2320      2321      2320      2322      2323      2324
      2323      2325      2326      2327      2326      2328      2329      2330
      2329      2331      2332      2333      2332      2334      2335      2336
      2335      2337      2338      2339      2338      2340      2341      2342
      2341      2343      2344      2345      2344      2346      2347      2348
      2347      2349      2350      2351      2350      2352      2353      2354
      2353      2355      2356      2357      2356      2358      2359      2360
      2359      2361      2362      2363      2362      2364      2365      2366
      2365      2367      2368      2369      2368      2370      2371      2372
      2371      2373      2374      2375      2374      2376      2377      2378
      2377      2379      2380      2381      2380      2382      2383      2384
      2383      2385      2386      2387      2386      2388      2389      2390
      2389      2391      2392      2393      2392      2394      2395      2396
      2395      2397      2398      2399      2398      2400      2401      2402
      2401      2403      2404      2405      2404      2406      2407      2408
      2407      2409      2410      2411      2410      2412      2413      2414
      2413      2415      2416      2417      2416      2418      2419      2420
      2419      2421      2422      2423      2422      2424      2425      2426
      2425      2427      2428      2429      2428      2430      2431      2432
      2431      2433      2434      2435      2434      2436      2437      2438
      2437      2439      2440      2441      2440      2442      2443      2444
      2443      2445      2446      2447      2446      2448      2449      2450
      2449      2451      2452      2453      2452      2454      2455      2456
      2455      2457      2458      2459      2458      2460      2461      2462
      2461      2463      2464      2465      2464      2466      2467      2468
      2467      2469      2470      2471      2470      2472      2473      2474
      2473      2475      2476      2477      2476      2478      2479      2480
      2479      2481      2482      2483      2482      2484      2485      2486
      2485      2487      2488      2489      2488      2490      2491      2492
      2491      2493      2494      2495      2494      2496      2497      2498
      2497      2499      2500      2501      2500      2502      2503      2504
      2503      2505      2506      2507      2506      2508      2509      2510
      2509      2511      2512      2513      2512      2514      2515      2516
      2515      2517      2518      2519      2518      2520      2521      2522
      2521      2523      2524      2525      2524      2526      2527      2528
      2527      2529      2530      2531      2530      2532      2533      2534
      2533      2535      2536      2537      2536      2538      2539      2540
      2539      2541      2542      2543      2542      2544      2545      2546
      2545      2547      2548      2549      2548      2550      2551      2552
      2551      2553      2554      2555      2554      2556      2557      2558
      2557      2559      2560      2561      2560      2562      2563      2564
      2563      2565      2566      2567      2566      2568      2569      2570
      2569      2571      2572      2573      2572      2574      2575      2576
      2575      2577      2578      2579      2578      2580      2581      2582
      2581      2583      2584      2585      2584      2586      2587      2588
      2587      2589      2590      2591      2590      2592      2593      2594
      2593      2595      2596      2597      2596      2598      2599      2600
      2599      2601      2602      2603      2602      2604      2605      2606
      2605      2607      2608      2609      2608      2610      2611      2612
      2611      2613      2614      2615      2614      2616      2617      2618
      2617      2619      2620      2621      2620      2622      2623      2624
      2623      2625      2626      2627      2626      2628      2629      2630
      2629      2631      2632      2633      2632      2634      2635      2636
      2635      2637      2638      2639      2638      2640      2641      2642
      2641      2643      2644      2645      2644      2646      2647      2648
      2647      2649      2650      2651      2650      2652      2653      2654
      2653      2655      2656      2657      2656      2658      2659      2660
      2659      2661      2662      2663      2662      2664      2665      2666
      2665      2667      2668      2669      2668      2670      2671      2672
      2671      2673      2674      2675      2674      2676      2677      2678
      2677      2679      2680      2681      2680      2682      2683      2684
      2683      2685      2686      2687      2686      2688      2689      2690
      2689      2691      2692      2693      2692      2694      2695      2696
      2695      2697      2698      2699      2698      2700      2701      2702
      2701      2703      2704      2705      2704      2706      2707      2708
      2707      2709      2710      2711      2710      2712      2713      2714
      2713      2715      2716      2717      2716      2718      2719      2720
      2719      2721      2722      2723      2722      2724      2725      2726
      2725      2727      2728      2729      2728      2730      2731      2732
      2731      2733      2734      2735      2734      2736      2737      2738
      2737      2739      2740      2741      2740      2742      2743      2744
      2743      2745      2746      2747      2746      2748      2749      2750
      2749      2751      2752      2753      2752      2754      2755      2756
      2755      2757      2758      2759      2758      2760      2761      2762
      2761      2763      2764      2765      2764      2766      2767      2768
      2767      2769      2770      2771      2770      2772      2773      2774
      2773      2775      2776      2777      2776      2778      2779      2780
      2779      2781      2782      2783      2782      2784      2785      2786
      2785      2787      2788      2789      2788      2790      2791      2792
      2791      2793      2794      2795      2794      2796      2797      2798
      2797      2799      2800      2801      2800      2802      2803      2804
      2803      2805      2806      2807      2806      2808      2809      2810
      2809      2811      2812      2813      2812      2814      2815      2816
      2815      2817      2818      2819      2818      2820      2821      2822
      2821      2823      2824      2825      2824      2826      2827      2828
      2827      2829      2830      2831      2830      2832      2833      2834
      2833      2835      2836      2837      2836      2838      2839      2840
      2839      2841      2842      2843      2842      2844      2845      2846
      2845      2847      2848      2849      2848      2850      2851      2852
      2851      2853      2854      2855      2854      2856      2857      2858
      2857      2859      2860      2861      2860      2862      2863      2864
      2863      2865      2866      2867      2866      2868      2869      2870
      2869      2871      2872      2873      2872      2874      2875      2876
      2875      2877      2878      2879      2878      2880      2881      2882
      2881      2883      2884      2885      2884      2886      2887      2888
      2887      2889      2890      2891      2890      2892      2893      2894
      2893      2895      2896      2897      2896      2898      2899      2900
      2899      2901      2902      2903      2902      2904      2905      2906
      2905      2907      2908      2909      2908      2910      2911      2912
      2911      2913      2914      2915      2914      2916      2917      2918
      2917      2919      2920      2921      2920      2922      2923      2924
      2923      2925      2926      2927      2926      2928      2929      2930
      2929      2931      2932      2933      2932      2934      2935      2936
      2935      2937      2938      2939      2938      2940      2941      2942
      2941      2943      2944      2945      2944      2946      2947      2948
      2947      2949      2950      2951      2950      2952      2953      2954
      2953      2955      2956      2957      2956      2958      2959      2960
      2959      2961      2962      2963      2962      2964      2965      2966
      2965      2967      2968      2969      2968      2970      2971      2972
      2971      2973      2974      2975      2974      2976      2977      2978
      2977      2979      2980      2981      2980      2982      2983      2984
      2983      2985      2986      2987      2986      2988      2989      2990
      2989      2991      2992      2993      2992      2994      2995      2996
      2995      2997      2998      2999      2998      3000      3001      3002
      3001      3003      3004      3005      3004      3006      3007      3008
      3007      3009      3010      3011      3010      3012      3013      3014
      3013      3015      3016      3017      3016      3018      3019      3020
      3019      3021      3022      3023      3022      3024      3025      3026
      3025      3027      3028      3029      3028      3030      3031      3032
      3031      3033      3034      3035      3034      3036      3037      3038
      3037      3039      3040      3041      3040      3042      3043      3044
      3043      3045      3046      3047      3046      3048      3049      3050
      3049      3051      3052      3053      3052      3054      3055      3056
      3055      3057      3058      3059      3058      3060      3061      3062
      3061      3063      3064      3065      3064      3066      3067      3068
      3067      3069      3070      3071      3070      3072      3073      3074
      3073      3075      3076      3077      3076      3078      3079      3080
      3079      3081      3082      3083      3082      3084      3085      3086
      3085      3087      3088      3089      3088      3090      3091      3092
      3091      3093      3094      3095      3094      3096      3097      3098
      3097      3099      3100      3101      3100      3102      3103      3104
      3103      3105      3106      3107      3106      3108      3109      3110
      3109      3111      3112      3113      3112      3114      3115      3116
      3115      3117      3118      3119      3118      3120      3121      3122
      3121      3123      3124      3125      3124      3126      3127      3128
      3127      3129      3130      3131      3130      3132      3133      3134
      3133      3135      3136      3137      3136      3138      3139      3140
      3139      3141      3142      3143      3142      3144      3145      3146
      3145      3147      3148      3149      3148      3150      3151      3152
      3151      3153      3154      3155      3154      3156      3157      3158
      3157      3159      3160      3161      3160      3162      3163      3164
      3163      3165      3166      3167      3166      3168      3169      3170
      3169      3171      3172      3173      3172      3174      3175      3176
      3175      3177      3178      3179      3178      3180      3181      3182
      3181      3183      3184      3185      3184      3186      3187      3188
      3187      3189      3190      3191      3190      3192      3193      3194
      3193      3195      3196      3197      3196      3198      3199      3200
      3199      3201      3202      3203      3202      3204      3205      3206
      3205      3207      3208      3209      3208      3210      3211      3212
      3211      3213      3214      3215      3214      3216      3217      3218
      3217      3219      3220      3221      3220      3222      3223      3224
      3223      3225      3226      3227      3226      3228      3229      3230
      3229      3231      3232      3233      3232      3234      3235      3236
      3235      3237      3238      3239      3238      3240      3241      3242
      3241      3243      3244      3245      3244      3246      3247      3248
      3247      3249      3250      3251      3250      3252      3253      3254
      3253      3255      3256      3257      3256      3258      3259      3260
      3259      3261      3262      3263      3262      3264      3265      3266
      3265      3267      3268      3269      3268      3270      3271      3272
      3271      3273      3274      3275      3274      3276      3277      3278
      3277      3279      3280      3281      3280      3282      3283      3284
      3283      3285      3286      3287      3286      3288      3289      3290
      3289      3291      3292      3293      3292      3294      3295      3296
      3295      3297      3298      3299      3298      3300      3301      3302
      3301      3303      3304      3305      3304      3306      3307      3308
      3307      3309      3310      3311      3310      3312      3313      3314
      3313      3315      3316      3317      3316      3318      3319      3320
      3319      3321      3322      3323      3322      3324      3325      3326
      3325      3327      3328      3329      3328      3330      3331      3332
      3331      3333      3334      3335      3334      3336      3337      3338
      3337      3339      3340      3341      3340      3342      3343      3344
      3343      3345      3346      3347      3346      3348      3349      3350
      3349      3351      3352      3353      3352      3354      3355      3356
      3355      3357      3358      3359      3358      3360      3361      3362
      3361      3363      3364      3365      3364      3366      3367      3368
      3367      3369      3370      3371      3370      3372      3373      3374
      3373      3375      3376      3377      3376      3378      3379      3380
      3379      3381      3382      3383      3382      3384      3385      3386
      3385      3387      3388      3389      3388      3390      3391      3392
      3391      3393      3394      3395      3394      3396      3397      3398
      3397      3399      3400      3401      3400      3402      3403      3404
      3403      3405      3406      3407      3406      3408      3409      3410
      3409      3411      3412      3413      3412      3414      3415      3416
      3415      3417      3418      3419      3418      3420      3421      3422
      3421      3423      3424      3425      3424      3426      3427      3428
      3427      3429      3430      3431      3430      3432      3433      3434
      3433      3435      3436      3437      3436      3438      3439      3440
      3439      3441      3442      3443      3442      3444      3445      3446
      3445      3447      3448      3449      3448      3450      3451      3452
      3451      3453      3454      3455      3454      3456      3457      3458
      3457      3459      3460      3461      3460      3462      3463      3464
      3463      3465      3466      3467      3466      3468      3469      3470
      3469      3471      3472      3473      3472      3474      3475      3476
      3475      3477      3478      3479      3478      3480      3481      3482
      3481      3483      3484      3485      3484      3486      3487      3488
      3487      3489      3490      3491      3490      3492      3493      3494
      3493      3495      3496      3497      3496      3498      3499      3500
      3499      3501      3502      3503      3502      3504      3505      3506
      3505      3507      3508      3509      3508      3510      3511      3512
      3511      3513      3514      3515      3514      3516      3517      3518
      3517      3519      3520      3521      3520      3522      3523      3524
      3523      3525      3526      3527      3526      3528      3529      3530
      3529      3531      3532      3533      3532      3534      3535      3536
      3535      3537      3538      3539      3538      3540      3541      3542
      3541      3543      3544      3545      3544      3546      3547      3548
      3547      3549      3550      3551      3550      3552      3553      3554
      3553      3555      3556      3557      3556      3558      3559      3560
      3559      3561      3562      3563      3562      3564      3565      3566
      3565      3567      3568      3569      3568      3570      3571      3572
      3571      3573      3574      3575      3574      3576      3577      3578
      3577      3579      3580      3581      3580      3582      3583      3584
      3583      3585      3586      3587      3586      3588      3589      3590
      3589      3591      3592      3593      3592      3594      3595      3596
      3595      3597      3598      3599      3598      3600      3601      3602
      3601      3603      3604      3605      3604      3606      3607      3608
      3607      3609      3610      3611      3610      3612      3613      3614
      3613      3615      3616      3617      3616      3618      3619      3620
      3619      3621      3622      3623      3622      3624      3625      3626
      3625      3627      3628      3629      3628      3630      3631      3632
      3631      3633      3634      3635      3634      3636      3637      3638
      3637      3639      3640      3641      3640      3642      3643      3644
      3643      3645      3646      3647      3646      3648      3649      3650
      3649      3651      3652      3653      3652      3654      3655      3656
      3655      3657      3658      3659      3658      3660      3661      3662
      3661      3663      3664      3665      3664      3666      3667      3668
      3667      3669      3670      3671      3670      3672      3673      3674
      3673      3675      3676      3677      3676      3678      3679      3680
      3679      3681      3682      3683      3682      3684      3685      3686
      3685      3687      3688      3689      3688      3690      3691      3692
      3691      3693      3694      3695      3694      3696      3697      3698
      3697      3699      3700      3701      3700      3702      3703      3704
      3703      3705      3706      3707      3706      3708      3709      3710
      3709      3711      3712      3713      3712      3714      3715      3716
      3715      3717      3718      3719      3718      3720      3721      3722
      3721      3723      3724      3725      3724      3726      3727      3728
      3727      3729      3730      3731      3730      3732      3733      3734
      3733      3735      3736      3737      3736      3738      3739      3740
      3739      3741      3742      3743      3742      3744      3745      3746
      3745      3747      3748      3749      3748      3750      3751      3752
      3751      3753      3754      3755      3754      3756      3757      3758
      3757      3759      3760      3761      3760      3762      3763      3764
      3763      3765      3766      3767      3766      3768      3769      3770
      3769      3771      3772      3773      3772      3774      3775      3776
      3775      3777      3778      3779      3778      3780      3781      3782
      3781      3783      3784      3785      3784      3786      3787      3788
      3787      3789      3790      3791      3790      3792      3793      3794
      3793      3795      3796      3797      3796      3798      3799      3800
      3799      3801      3802      3803      3802      3804      3805      3806
      3805      3807      3808      3809      3808      3810      3811      3812
      3811      3813      3814      3815      3814      3816      3817      3818
      3817      3819      3820      3821      3820      3822      3823      3824
      3823      3825      3826      3827      3826      3828      3829      3830
      3829      3831      3832      3833      3832      3834      3835      3836
      3835      3837      3838      3839      3838      3840      3841      3842
      3841      3843      3844      3845      3844      3846      3847      3848
      3847      3849      3850      3851      3850      3852      3853      3854
      3853      3855      3856      3857      3856      3858      3859      3860
      3859      3861      3862      3863      3862      3864      3865      3866
      3865      3867      3868      3869      3868      3870      3871      3872
      3871      3873      3874      3875      3874      3876      3877      3878
      3877      3879      3880      3881      3880      3882      3883      3884
      3883      3885      3886      3887      3886      3888      3889      3890
      3889      3891      3892      3893      3892      3894      3895      3896
      3895      3897      3898      3899      3898      3900      3901      3902
      3901      3903      3904      3905      3904      3906      3907      3908
      3907      3909      3910      3911      3910      3912      3913      3914
      3913      3915      3916      3917      3916      3918      3919      3920
      3919      3921      3922      3923      3922      3924      3925      3926
      3925      3927      3928      3929      3928      3930      3931      3932
      3931      3933      3934      3935      3934      3936      3937      3938
      3937      3939      3940      3941      3940      3942      3943      3944
      3943      3945      3946      3947      3946      3948      3949      3950
      3949      3951      3952      3953      3952      3954      3955      3956
      3955      3957      3958      3959      3958      3960      3961      3962
      3961      3963      3964      3965      3964      3966      3967      3968
      3967      3969      3970      3971      3970      3972      3973      3974
      3973      3975      3976      3977      3976      3978      3979      3980
      3979      3981      3982      3983      3982      3984      3985      3986
      3985      3987      3988      3989      3988      3990      3991      3992
      3991      3993      3994      3995      3994      3996      3997      3998
      3997      3999      4000      4001      4000      4002      4003      4004
      4003      4005      4006      4007      4006      4008      4009      4010
      4009      4011      4012      4013      4012      4014      4015      4016
      4015      4017      4018      4019      4018      4020      4021      4022
      4021      4023      4024      4025      4024      4026      4027      4028
      4027      4029      4030      4031      4030      4032      4033      4034
      4033      4035      4036      4037      4036      4038      4039      4040
      4039      4041      4042      4043      4042      4044      4045      4046
      4045      4047      4048      4049      4048      4050      4051      4052
      4051      4053      4054      4055      4054      4056      4057      4058
      4057      4059      4060      4061      4060      4062      4063      4064
      4063      4065      4066      4067      4066      4068      4069      4070
      4069      4071      4072      4073      4072      4074      4075      4076
      4075      4077      4078      4079      4078      4080      4081      4082
      4081      4083      4084      4085      4084      4086      4087      4088
      4087      4089      4090      4091      4090      4092      4093      4094
      4093      4095      4096      4097      4096      4098      4099      4100
      4099      4101      4102      4103      4102      4104      4105      4106
      4105      4107      4108      4109      4108      4110      4111      4112
      4111      4113      4114      4115      4114      4116      4117      4118
      4117      4119      4120      4121      4120      4122      4123      4124
      4123      4125      4126      4127      4126      4128      4129      4130
      4129      4131      4132      4133      4132      4134      4135      4136
      4135      4137      4138      4139      4138      4140      4141      4142
      4141      4143      4144      4145      4144      4146      4147      4148
      4147      4149      4150      4151      4150      4152      4153      4154
      4153      4155      4156      4157      4156      4158      4159      4160
      4159      4161      4162      4163      4162      4164      4165      4166
      4165      4167      4168      4169      4168      4170      4171      4172
      4171      4173      4174      4175      4174      4176      4177      4178
      4177      4179      4180      4181      4180      4182      4183      4184
      4183      4185      4186      4187      4186      4188      4189      4190
      4189      4191      4192      4193      4192      4194      4195      4196
      4195      4197      4198      4199      4198      4200      4201      4202
      4201      4203      4204      4205      4204      4206      4207      4208
      4207      4209      4210      4211      4210      4212      4213      4214
      4213      4215      4216      4217      4216      4218      4219      4220
      4219      4221      4222      4223      4222      4224      4225      4226
      4225      4227      4228      4229      4228      4230      4231      4232
      4231      4233      4234      4235      4234      4236      4237      4238
      4237      4239      4240      4241      4240      4242      4243      4244
      4243      4245      4246      4247      4246      4248      4249      4250
      4249      4251      4252      4253      4252      4254      4255      4256
      4255      4257      4258      4259      4258      4260      4261      4262
      4261      4263      4264      4265      4264      4266      4267      4268
      4267      4269      4270      4271      4270      4272      4273      4274
      4273      4275      4276      4277      4276      4278      4279      4280
      4279      4281      4282      4283      4282      4284      4285      4286
      4285      4287      4288      4289      4288      4290      4291      4292
      4291      4293      4294      4295      4294      4296      4297      4298
      4297      4299      4300      4301      4300      4302      4303      4304
      4303      4305      4306      4307      4306      4308      4309      4310
      4309      4311      4312      4313      4312      4314      4315      4316
      4315      4317      4318      4319      4318      4320      4321      4322
      4321      4323      4324      4325      4324      4326      4327      4328
      4327      4329      4330      4331      4330      4332      4333      4334
      4333      4335      4336      4337      4336      4338      4339      4340
      4339      4341      4342      4343      4342      4344      4345      4346
      4345      4347      4348      4349      4348      4350      4351      4352
      4351      4353      4354      4355      4354      4356      4357      4358
      4357      4359      4360      4361      4360      4362      4363      4364
      4363      4365      4366      4367      4366      4368      4369      4370
      4369      4371      4372      4373      4372      4374      4375      4376
      4375      4377      4378      4379      4378      4380      4381      4382
      4381      4383      4384      4385      4384      4386      4387      4388
      4387      4389      4390      4391      4390      4392      4393      4394
      4393      4395      4396      4397      4396      4398      4399      4400
      4399      4401      4402      4403      4402      4404      4405      4406
      4405      4407      4408      4409      4408      4410      4411      4412
      4411      4413      4414      4415      4414      4416      4417      4418
      4417      4419      4420      4421      4420      4422      4423      4424
      4423      4425      4426      4427      4426      4428      4429      4430
      4429      4431      4432      4433      4432      4434      4435      4436
      4435      4437      4438      4439      4438      4440      4441      4442
      4441      4443      4444      4445      4444      4446      4447      4448
      4447      4449      4450      4451      4450      4452      4453      4454
      4453      4455      4456      4457      4456      4458      4459      4460
      4459      4461      4462      4463      4462      4464      4465      4466
      4465      4467      4468      4469      4468      4470      4471      4472
      4471      4473      4474      4475      4474      4476      4477      4478
      4477      4479      4480      4481      4480      4482      4483      4484
      4483      4485      4486      4487      4486      4488      4489      4490
      4489      4491      4492      4493      4492      4494      4495      4496
      4495      4497      4498      4499      4498      4500      4501      4502
      4501      4503      4504      4505      4504      4506      4507      4508
      4507      4509      4510      4511      4510      4512      4513      4514
      4513      4515      4516      4517      4516      4518      4519      4520
      4519      4521      4522      4523      4522      4524      4525      4526
      4525      4527      4528      4529      4528      4530      4531      4532
      4531      4533      4534      4535      4534      4536      4537      4538
      4537      4539      4540      4541      4540      4542      4543      4544
      4543      4545      4546      4547      4546      4548      4549      4550
      4549      4551      4552      4553      4552      4554      4555      4556
      4555      4557      4558      4559      4558      4560      4561      4562
      4561      4563      4564      4565      4564      4566      4567      4568
      4567      4569      4570      4571      4570      4572      4573      4574
      4573      4575      4576      4577      4576      4578      4579      4580
      4579      4581      4582      4583      4582      4584      4585      4586
      4585      4587      4588      4589      4588      4590      4591      4592
      4591      4593      4594      4595      4594      4596      4597      4598
      4597      4599      4600      4601      4600      4602      4603      4604
      4603      4605      4606      4607      4606      4608      4609      4610
      4609      4611      4612      4613      4612      4614      4615      4616
      4615      4617      4618      4619      4618      4620      4621      4622
      4621      4623      4624      4625      4624      4626      4627      4628
      4627      4629      4630      4631      4630      4632      4633      4634
      4633      4635      4636      4637      4636      4638      4639      4640
      4639      4641      4642      4643      4642      4644      4645      4646
      4645      4647      4648      4649      4648      4650      4651      4652
      4651      4653      4654      4655      4654      4656      4657      4658
      4657      4659      4660      4661      4660      4662      4663      4664
      4663      4665      4666      4667      4666      4668      4669      4670
      4669      4671      4672      4673      4672      4674      4675      4676
      4675      4677      4678      4679      4678      4680      4681      4682
      4681      4683      4684      4685      4684      4686      4687      4688
      4687      4689      4690      4691      4690      4692      4693      4694
      4693      4695      4696      4697      4696      4698      4699      4700
      4699      4701      4702      4703      4702      4704      4705      4706
      4705      4707      4708      4709      4708      4710      4711      4712
      4711      4713      4714      4715      4714      4716      4717      4718
      4717      4719      4720      4721      4720      4722      4723      4724
      4723      4725      4726      4727      4726      4728      4729      4730
      4729      4731      4732      4733      4732      4734      4735      4736
      4735      4737      4738      4739      4738      4740      4741      4742
      4741      4743      4744      4745      4744      4746      4747      4748
      4747      4749      4750      4751      4750      4752      4753      4754
      4753      4755      4756      4757      4756      4758      4759      4760
      4759      4761      4762      4763      4762      4764      4765      4766
      4765      4767      4768      4769      4768      4770      4771      4772
      4771      4773      4774      4775      4774      4776      4777      4778
      4777      4779      4780      4781      4780      4782      4783      4784
      4783      4785      4786      4787      4786      4788      4789      4790
      4789      4791      4792      4793      4792      4794      4795      4796
      4795      4797      4798      4799      4798      4800      4801      4802
      4801      4803      4804      4805      4804      4806      4807      4808
      4807      4809      4810      4811      4810      4812      4813      4814
      4813      4815      4816      4817      4816      4818      4819      4820
      4819      4821      4822      4823      4822      4824      4825      4826
      4825      4827      4828      4829      4828      4830      4831      4832
      4831      4833      4834      4835      4834      4836      4837      4838
      4837      4839      4840      4841      4840      4842      4843      4844
      4843      4845      4846      4847      4846      4848      4849      4850
      4849      4851      4852      4853      4852      4854      4855      4856
      4855      4857      4858      4859      4858      4860      4861      4862
      4861      4863      4864      4865      4864      4866      4867      4868
      4867      4869      4870      4871      4870      4872      4873      4874
      4873      4875      4876      4877      4876      4878      4879      4880
      4879      4881      4882      4883      4882      4884      4885      4886
      4885      4887      4888      4889      4888      4890      4891      4892
      4891      4893      4894      4895      4894      4896      4897      4898
      4897      4899      4900      4901      4900      4902      4903      4904
      4903      4905      4906      4907      4906      4908      4909      4910
      4909      4911      4912      4913      4912      4914      4915      4916
      4915      4917      4918      4919      4918      4920      4921      4922
      4921      4923      4924      4925      4924      4926      4927      4928
      4927      4929      4930      4931      4930      4932      4933      4934
      4933      4935      4936      4937      4936      4938      4939      4940
      4939      4941      4942      4943      4942      4944      4945      4946
      4945      4947      4948      4949      4948      4950      4951      4952
      4951      4953      4954      4955      4954      4956      4957      4958
      4957      4959      4960      4961      4960      4962      4963      4964
      4963      4965      4966      4967      4966      4968      4969      4970
      4969      4971      4972      4973      4972      4974      4975      4976
      4975      4977      4978      4979      4978      4980      4981      4982
      4981      4983      4984      4985      4984      4986      4987      4988
      4987      4989      4990      4991      4990      4992      4993      4994
      4993      4995      4996      4997      4996      4998      4999      5000
      4999      5001      5002      5003      5002      5004      5005      5006
      5005      5007      5008      5009      5008      5010      5011      5012
      5011      5013      5014      5015      5014      5016      5017      5018
      5017      5019      5020      5021      5020      5022      5023      5024
      5023      5025      5026      5027      5026      5028      5029      5030
      5029      5031      5032      5033      5032      5034      5035      5036
      5035      5037      5038      5039      5038      5040      5041      5042
      5041      5043      5044      5045      5044      5046      5047      5048
      5047      5049      5050      5051      5050      5052      5053      5054
      5053      5055      5056      5057      5056      5058      5059      5060
      5059      5061      5062      5063      5062      5064      5065      5066
      5065      5067      5068      5069      5068      5070      5071      5072
      5071      5073      5074      5075      5074      5076      5077      5078
      5077      5079      5080      5081      5080      5082      5083      5084
      5083      5085      5086      5087      5086      5088      5089      5090
      5089      5091      5092      5093      5092      5094      5095      5096
      5095      5097      5098      5099      5098      5100      5101      5102
      5101      5103      5104      5105      5104      5106      5107      5108
      5107      5109      5110      5111      5110      5112      5113      5114
      5113      5115      5116      5117      5116      5118      5119      5120
      5119      5121      5122      5123      5122      5124      5125      5126
      5125      5127      5128      5129      5128      5130      5131      5132
      5131      5133      5134      5135      5134      5136      5137      5138
      5137      5139      5140      5141      5140      5142      5143      5144
      5143      5145      5146      5147      5146      5148      5149      5150
      5149      5151      5152      5153      5152      5154      5155      5156
      5155      5157      5158      5159      5158      5160      5161      5162
      5161      5163      5164      5165      5164      5166      5167      5168
      5167      5169      5170      5171      5170      5172      5173      5174
      5173      5175      5176      5177      5176      5178      5179      5180
      5179      5181      5182      5183      5182      5184      5185      5186
      5185      5187      5188      5189      5188      5190      5191      5192
      5191      5193      5194      5195      5194      5196      5197      5198
      5197      5199      5200      5201      5200      5202      5203      5204
      5203      5205      5206      5207      5206      5208      5209      5210
      5209      5211      5212      5213      5212      5214      5215      5216
      5215      5217      5218      5219      5218      5220      5221      5222
      5221      5223      5224      5225      5224      5226      5227      5228
      5227      5229      5230      5231      5230      5232      5233      5234
      5233      5235      5236      5237      5236      5238      5239      5240
      5239      5241      5242      5243      5242      5244      5245      5246
      5245      5247      5248      5249      5248      5250      5251      5252
      5251      5253      5254      5255      5254      5256      5257      5258
      5257      5259      5260      5261      5260      5262      5263      5264
      5263      5265      5266      5267      5266      5268      5269      5270
      5269      5271      5272      5273      5272      5274      5275      5276
      5275      5277      5278      5279      5278      5280      5281      5282
      5281      5283      5284      5285      5284      5286      5287      5288
      5287      5289      5290      5291      5290      5292      5293      5294
      5293      5295      5296      5297      5296      5298      5299      5300
      5299      5301      5302      5303      5302      5304      5305      5306
      5305      5307      5308      5309      5308      5310      5311      5312
      5311      5313      5314      5315      5314      5316      5317      5318
      5317      5319      5320      5321      5320      5322      5323      5324
      5323      5325      5326      5327      5326      5328      5329      5330
      5329      5331      5332      5333      5332      5334      5335      5336
      5335      5337      5338      5339      5338      5340      5341      5342
      5341      5343      5344      5345      5344      5346      5347      5348
      5347      5349      5350      5351      5350      5352      5353      5354
      5353      5355      5356      5357      5356      5358      5359      5360
      5359      5361      5362      5363      5362      5364      5365      5366
      5365      5367      5368      5369      5368      5370      5371      5372
      5371      5373      5374      5375      5374      5376      5377      5378
      5377      5379      5380      5381      5380      5382      5383      5384
      5383      5385      5386      5387      5386      5388      5389      5390
      5389      5391      5392      5393      5392      5394      5395      5396
      5395      5397      5398      5399      5398      5400      5401      5402
      5401      5403      5404      5405      5404      5406      5407      5408
      5407      5409      5410      5411      5410      5412      5413      5414
      5413      5415      5416      5417      5416      5418      5419      5420
      5419      5421      5422      5423      5422      5424      5425      5426
      5425      5427      5428      5429      5428      5430      5431      5432
      5431      5433      5434      5435      5434      5436      5437      5438
      5437      5439      5440      5441      5440      5442      5443      5444
      5443      5445      5446      5447      5446      5448      5449      5450
      5449      5451      5452      5453      5452      5454      5455      5456
      5455      5457      5458      5459      5458      5460      5461      5462
      5461      5463      5464      5465      5464      5466      5467      5468
      5467      5469      5470      5471      5470      5472      5473      5474
      5473      5475      5476      5477      5476      5478      5479      5480
      5479      5481      5482      5483      5482      5484      5485      5486
      5485      5487      5488      5489      5488      5490      5491      5492
      5491      5493      5494      5495      5494      5496      5497      5498
      5497      5499      5500      5501      5500      5502      5503      5504
      5503      5505      5506      5507      5506      5508      5509      5510
      5509      5511      5512      5513      5512      5514      5515      5516
      5515      5517      5518      5519      5518      5520      5521      5522
      5521      5523      5524      5525      5524      5526      5527      5528
      5527      5529      5530      5531      5530      5532      5533      5534
      5533      5535      5536      5537      5536      5538      5539      5540
      5539      5541      5542      5543      5542      5544      5545      5546
      5545      5547      5548      5549      5548      5550      5551      5552
      5551      5553      5554      5555      5554      5556      5557      5558
      5557      5559      5560      5561      5560      5562      5563      5564
      5563      5565      5566      5567      5566      5568      5569      5570
      5569      5571      5572      5573      5572      5574      5575      5576
      5575      5577      5578      5579      5578      5580      5581      5582
      5581      5583      5584      5585      5584      5586      5587      5588
      5587      5589      5590      5591      5590      5592      5593      5594
      5593      5595      5596      5597      5596      5598      5599      5600
      5599      5601      5602      5603      5602      5604      5605      5606
      5605      5607      5608      5609      5608      5610      5611      5612
      5611      5613      5614      5615      5614      5616      5617      5618
      5617      5619      5620      5621      5620      5622      5623      5624
      5623      5625      5626      5627      5626      5628      5629      5630
      5629      5631      5632      5633      5632      5634      5635      5636
      5635      5637      5638      5639      5638      5640      5641      5642
      5641      5643      5644      5645      5644      5646      5647      5648
      5647      5649      5650      5651      5650      5652      5653      5654
      5653      5655      5656      5657      5656      5658      5659      5660
      5659      5661      5662      5663      5662      5664      5665      5666
      5665      5667      5668      5669      5668      5670      5671      5672
      5671      5673      5674      5675      5674      5676      5677      5678
      5677      5679      5680      5681      5680      5682      5683      5684
      5683      5685      5686      5687      5686      5688      5689      5690
      5689      5691      5692      5693      5692      5694      5695      5696
      5695      5697      5698      5699      5698      5700      5701      5702
      5701      5703      5704      5705      5704      5706      5707      5708
      5707      5709      5710      5711      5710      5712      5713      5714
      5713      5715      5716      5717      5716      5718      5719      5720
      5719      5721      5722      5723      5722      5724      5725      5726
      5725      5727      5728      5729      5728      5730      5731      5732
      5731      5733      5734      5735      5734      5736      5737      5738
      5737      5739      5740      5741      5740      5742      5743      5744
      5743      5745      5746      5747      5746      5748      5749      5750
      5749      5751      5752      5753      5752      5754      5755      5756
      5755      5757      5758      5759      5758      5760      5761      5762
      5761      5763      5764      5765      5764      5766      5767      5768
      5767      5769      5770      5771      5770      5772      5773      5774
      5773      5775      5776      5777      5776      5778      5779      5780
      5779      5781      5782      5783      5782      5784      5785      5786
      5785      5787      5788      5789      5788      5790      5791      5792
      5791      5793      5794      5795      5794      5796      5797      5798
      5797      5799      5800      5801      5800      5802      5803      5804
      5803      5805      5806      5807      5806      5808      5809      5810
      5809      5811      5812      5813      5812      5814      5815      5816
      5815      5817      5818      5819      5818      5820      5821      5822
      5821      5823      5824      5825      5824      5826      5827      5828
      5827      5829      5830      5831      5830      5832      5833      5834
      5833      5835      5836      5837      5836      5838      5839      5840
      5839      5841      5842      5843      5842      5844      5845      5846
      5845      5847      5848      5849      5848      5850      5851      5852
      5851      5853      5854      5855      5854      5856      5857      5858
      5857      5859      5860      5861      5860      5862      5863      5864
      5863      5865      5866      5867      5866      5868      5869      5870
      5869      5871      5872      5873      5872      5874      5875      5876
      5875      5877      5878      5879      5878      5880      5881      5882
      5881      5883      5884      5885      5884      5886      5887      5888
      5887      5889      5890      5891      5890      5892      5893      5894
      5893      5895      5896      5897      5896      5898      5899      5900
      5899      5901      5902      5903      5902      5904      5905      5906
      5905      5907      5908      5909      5908      5910      5911      5912
      5911      5913      5914      5915      5914      5916      5917      5918
      5917      5919      5920      5921      5920      5922      5923      5924
      5923      5925      5926      5927      5926      5928      5929      5930
      5929      5931      5932      5933      5932      5934      5935      5936
      5935      5937      5938      5939      5938      5940      5941      5942
      5941      5943      5944      5945      5944      5946      5947      5948
      5947      5949      5950      5951      5950      5952      5953      5954
      5953      5955      5956      5957      5956      5958      5959      5960
      5959      5961      5962      5963      5962      5964      5965      5966
      5965      5967      5968      5969      5968      5970      5971      5972
      5971      5973      5974      5975      5974      5976      5977      5978
      5977      5979      5980      5981      5980      5982      5983      5984
      5983      5985      5986      5987      5986      5988      5989      5990
      5989      5991      5992      5993      5992      5994      5995      5996
      5995      5997      5998      5999      5998      6000      6001      6002
      6001      6003      6004      6005      6004      6006      6007      6008
      6007      6009      6010      6011      6010      6012      6013      6014
      6013      6015      6016      6017      6016      6018      6019      6020
      6019      6021      6022      6023      6022      6024      6025      6026
      6025      6027      6028      6029      6028      6030      6031      6032
      6031      6033      6034      6035      6034      6036      6037      6038
      6037      6039      6040      6041      6040      6042      6043      6044
      6043      6045      6046      6047      6046      6048      6049      6050
      6049      6051      6052      6053      6052      6054      6055      6056
      6055      6057      6058      6059      6058      6060      6061      6062
      6061      6063      6064      6065      6064      6066      6067      6068
      6067      6069      6070      6071      6070      6072      6073      6074
      6073      6075      6076      6077      6076      6078      6079      6080
      6079      6081      6082      6083      6082      6084      6085      6086
      6085      6087      6088      6089      6088      6090      6091      6092
      6091      6093      6094      6095      6094      6096      6097      6098
      6097      6099      6100      6101      6100      6102      6103      6104
      6103      6105      6106      6107      6106      6108      6109      6110
      6109      6111      6112      6113      6112      6114      6115      6116
      6115      6117      6118      6119      6118      6120      6121      6122
      6121      6123      6124      6125      6124      6126      6127      6128
      6127      6129      6130      6131      6130      6132      6133      6134
      6133      6135      6136      6137      6136      6138      6139      6140
      6139      6141      6142      6143      6142      6144      6145      6146
      6145      6147      6148      6149      6148      6150      6151      6152
      6151      6153      6154      6155      6154      6156      6157      6158
      6157      6159      6160      6161      6160      6162      6163      6164
      6163      6165      6166      6167      6166      6168      6169      6170
      6169      6171      6172      6173      6172      6174      6175      6176
      6175      6177      6178      6179      6178      6180      6181      6182
      6181      6183      6184      6185      6184      6186      6187      6188
      6187      6189      6190      6191      6190      6192      6193      6194
      6193      6195      6196      6197      6196      6198      6199      6200
      6199      6201      6202      6203      6202      6204      6205      6206
      6205      6207      6208      6209      6208      6210      6211      6212
      6211      6213      6214      6215      6214      6216      6217      6218
      6217      6219      6220      6221      6220      6222      6223      6224
      6223      6225      6226      6227      6226      6228      6229      6230
      6229      6231      6232      6233      6232      6234      6235      6236
      6235      6237      6238      6239      6238      6240      6241      6242
      6241      6243      6244      6245      6244      6246      6247      6248
      6247      6249      6250      6251      6250      6252      6253      6254
      6253      6255      6256      6257      6256      6258      6259      6260
      6259      6261      6262      6263      6262      6264      6265      6266
      6265      6267      6268      6269      6268      6270      6271      6272
      6271      6273      6274      6275      6274      6276      6277      6278
      6277      6279      6280      6281      6280      6282      6283      6284
      6283      6285      6286      6287      6286      6288      6289      6290
      6289      6291      6292      6293      6292      6294      6295      6296
      6295      6297      6298      6299      6298      6300      6301      6302
      6301      6303      6304      6305      6304      6306      6307      6308
      6307      6309      6310      6311      6310      6312      6313      6314
      6313      6315      6316      6317      6316      6318      6319      6320
      6319      6321      6322      6323      6322      6324      6325      6326
      6325      6327      6328      6329      6328      6330      6331      6332
      6331      6333      6334      6335      6334      6336      6337      6338
      6337      6339      6340      6341      6340      6342      6343      6344
      6343      6345      6346      6347      6346      6348      6349      6350
      6349      6351      6352      6353      6352      6354      6355      6356
      6355      6357      6358      6359      6358      6360      6361      6362
      6361      6363      6364      6365      6364      6366      6367      6368
      6367      6369      6370      6371      6370      6372      6373      6374
      6373      6375      6376      6377      6376      6378      6379      6380
      6379      6381      6382      6383      6382      6384      6385      6386
      6385      6387      6388      6389      6388      6390      6391      6392
      6391      6393      6394      6395      6394      6396      6397      6398
      6397      6399      6400      6401      6400      6402      6403      6404
      6403      6405      6406      6407      6406      6408      6409      6410
      6409      6411      6412      6413      6412      6414      6415      6416
      6415      6417      6418      6419      6418      6420      6421      6422
      6421      6423      6424      6425      6424      6426      6427      6428
      6427      6429      6430      6431      6430      6432      6433      6434
      6433      6435      6436      6437      6436      6438      6439      6440
      6439      6441      6442      6443      6442      6444      6445      6446
      6445      6447      6448      6449      6448      6450      6451      6452
      6451      6453      6454      6455      6454      6456      6457      6458
      6457      6459      6460      6461      6460      6462      6463      6464
      6463      6465      6466      6467      6466      6468      6469      6470
      6469      6471      6472      6473      6472      6474      6475      6476
      6475      6477      6478      6479      6478      6480      6481      6482
      6481      6483      6484      6485      6484      6486      6487      6488
      6487      6489      6490      6491      6490      6492      6493      6494
      6493      6495      6496      6497      6496      6498      6499      6500
      6499      6501      6502      6503      6502      6504      6505      6506
      6505      6507      6508      6509      6508      6510      6511      6512
      6511      6513      6514      6515      6514      6516      6517      6518
      6517      6519      6520      6521      6520      6522      6523      6524
      6523      6525      6526      6527      6526      6528      6529      6530
      6529      6531      6532      6533      6532      6534      6535      6536
      6535      6537      6538      6539      6538      6540      6541      6542
      6541      6543      6544      6545      6544      6546      6547      6548
      6547      6549      6550      6551      6550      6552      6553      6554
      6553      6555      6556      6557      6556      6558      6559      6560
      6559      6561      6562      6563      6562      6564      6565      6566
      6565      6567      6568      6569      6568      6570      6571      6572
      6571      6573      6574      6575      6574      6576      6577      6578
      6577      6579      6580      6581      6580      6582      6583      6584
      6583      6585      6586      6587      6586      6588      6589      6590
      6589      6591      6592      6593      6592      6594      6595      6596
      6595      6597      6598      6599      6598      6600      6601      6602
      6601      6603      6604      6605      6604      6606      6607      6608
      6607      6609      6610      6611      6610      6612      6613      6614
      6613      6615      6616      6617      6616      6618      6619      6620
      6619      6621      6622      6623      6622      6624      6625      6626
      6625      6627      6628      6629      6628      6630      6631      6632
      6631      6633      6634      6635      6634      6636      6637      6638
      6637      6639      6640      6641      6640      6642      6643      6644
      6643      6645      6646      6647      6646      6648      6649      6650
      6649      6651      6652      6653      6652      6654      6655      6656
      6655      6657      6658      6659      6658      6660      6661      6662
      6661      6663      6664      6665      6664      6666      6667      6668
      6667      6669      6670      6671      6670      6672      6673      6674
      6673      6675      6676      6677      6676      6678      6679      6680
      6679      6681      6682      6683      6682      6684      6685      6686
      6685      6687      6688      6689      6688      6690      6691      6692
      6691      6693      6694      6695      6694      6696      6697      6698
      6697      6699      6700      6701      6700      6702      6703      6704
      6703      6705      6706      6707      6706      6708      6709      6710
      6709      6711      6712      6713      6712      6714      6715      6716
      6715      6717      6718      6719      6718      6720      6721      6722
      6721      6723      6724      6725      6724      6726      6727      6728
      6727      6729      6730      6731      6730      6732      6733      6734
      6733      6735      6736      6737      6736      6738      6739      6740
      6739      6741      6742      6743      6742      6744      6745      6746
      6745      6747      6748      6749      6748      6750      6751      6752
      6751      6753      6754      6755      6754      6756      6757      6758
      6757      6759      6760      6761      6760      6762      6763      6764
      6763      6765      6766      6767      6766      6768      6769      6770
      6769      6771      6772      6773      6772      6774      6775      6776
      6775      6777      6778      6779      6778      6780      6781      6782
      6781      6783      6784      6785      6784      6786      6787      6788
      6787      6789      6790      6791      6790      6792      6793      6794
      6793      6795      6796      6797      6796      6798      6799      6800
      6799      6801      6802      6803      6802      6804      6805      6806
      6805      6807      6808      6809      6808      6810      6811      6812
      6811      6813      6814      6815      6814      6816      6817      6818
      6817      6819      6820      6821      6820      6822      6823      6824
      6823      6825      6826      6827      6826      6828      6829      6830
      6829      6831      6832      6833      6832      6834      6835      6836
      6835      6837      6838      6839      6838      6840      6841      6842
      6841      6843      6844      6845      6844      6846      6847      6848
      6847      6849      6850      6851      6850      6852      6853      6854
      6853      6855      6856      6857      6856      6858      6859      6860
      6859      6861      6862      6863      6862      6864      6865      6866
      6865      6867      6868      6869      6868      6870      6871      6872
      6871      6873      6874      6875      6874      6876      6877      6878
      6877      6879      6880      6881      6880      6882      6883      6884
      6883      6885      6886      6887      6886      6888      6889      6890
      6889      6891      6892      6893      6892      6894      6895      6896
      6895      6897      6898      6899      6898      6900      6901      6902
      6901      6903      6904      6905      6904      6906      6907      6908
      6907      6909      6910      6911      6910      6912      6913      6914
      6913      6915      6916      6917      6916      6918      6919      6920
      6919      6921      6922      6923      6922      6924      6925      6926
      6925      6927      6928      6929      6928      6930      6931      6932
      6931      6933      6934      6935      6934      6936      6937      6938
      6937      6939      6940      6941      6940      6942      6943      6944
      6943      6945      6946      6947      6946      6948      6949      6950
      6949      6951      6952      6953      6952      6954      6955      6956
      6955      6957      6958      6959      6958      6960      6961      6962
      6961      6963      6964      6965      6964      6966      6967      6968
      6967      6969      6970      6971      6970      6972      6973      6974
      6973      6975      6976      6977      6976      6978      6979      6980
      6979      6981      6982      6983      6982      6984      6985      6986
      6985      6987      6988      6989      6988      6990      6991      6992
      6991      6993      6994      6995      6994      6996      6997      6998
      6997      6999      7000      7001      7000      7002      7003      7004
      7003      7005      7006      7007      7006      7008      7009      7010
      7009      7011      7012      7013      7012      7014      7015      7016
      7015      7017      7018      7019      7018      7020      7021      7022
      7021      7023      7024      7025      7024      7026      7027      7028
      7027      7029      7030      7031      7030      7032      7033      7034
      7033      7035      7036      7037      7036      7038      7039      7040
      7039      7041      7042      7043      7042      7044      7045      7046
      7045      7047      7048      7049      7048      7050      7051      7052
      7051      7053      7054      7055      7054      7056      7057      7058
      7057      7059      7060      7061      7060      7062      7063      7064
      7063      7065      7066      7067      7066      7068      7069      7070
      7069      7071      7072      7073      7072      7074      7075      7076
      7075      7077      7078      7079      7078      7080      7081      7082
      7081      7083      7084      7085      7084      7086      7087      7088
      7087      7089      7090      7091      7090      7092      7093      7094
      7093      7095      7096      7097      7096      7098      7099      7100
      7099      7101      7102      7103      7102      7104      7105      7106
      7105      7107      7108      7109      7108      7110      7111      7112
      7111      7113      7114      7115      7114      7116      7117      7118
      7117      7119      7120      7121      7120      7122      7123      7124
      7123      7125      7126      7127      7126      7128      7129      7130
      7129      7131      7132      7133      7132      7134      7135      7136
      7135      7137      7138      7139      7138      7140      7141      7142
      7141      7143      7144      7145      7144      7146      7147      7148
      7147      7149      7150      7151      7150      7152      7153      7154
      7153      7155      7156      7157      7156      7158      7159      7160
      7159      7161      7162      7163      7162      7164      7165      7166
      7165      7167      7168      7169      7168      7170      7171      7172
      7171      7173      7174      7175      7174      7176      7177      7178
      7177      7179      7180      7181      7180      7182      7183      7184
      7183      7185      7186      7187      7186      7188      7189      7190
      7189      7191      7192      7193      7192      7194      7195      7196
      7195      7197      7198      7199      7198      7200      7201      7202
      7201      7203      7204      7205      7204      7206      7207      7208
      7207      7209      7210      7211      7210      7212      7213      7214
      7213      7215      7216      7217      7216      7218      7219      7220
      7219      7221      7222      7223      7222      7224      7225      7226
      7225      7227      7228      7229      7228      7230      7231      7232
      7231      7233      7234      7235      7234      7236      7237      7238
      7237      7239      7240      7241      7240      7242      7243      7244
      7243      7245      7246      7247      7246      7248      7249      7250
      7249      7251      7252      7253      7252      7254      7255      7256
      7255      7257      7258      7259      7258      7260      7261      7262
      7261      7263      7264      7265      7264      7266      7267      7268
      7267      7269      7270      7271      7270      7272      7273      7274
      7273      7275      7276      7277      7276      7278      7279      7280
      7279      7281      7282      7283      7282      7284      7285      7286
      7285      7287      7288      7289      7288      7290      7291      7292
      7291      7293      7294      7295      7294      7296      7297      7298
      7297      7299      7300      7301      7300      7302      7303      7304
      7303      7305      7306      7307      7306      7308      7309      7310
      7309      7311      7312      7313      7312      7314      7315      7316
      7315      7317      7318      7319      7318      7320      7321      7322
      7321      7323      7324      7325      7324      7326      7327      7328
      7327      7329      7330      7331      7330      7332      7333      7334
      7333      7335      7336      7337      7336      7338      7339      7340
      7339      7341      7342      7343      7342      7344      7345      7346
      7345      7347      7348      7349      7348      7350      7351      7352
      7351      7353      7354      7355      7354      7356      7357      7358
      7357      7359      7360      7361      7360      7362      7363      7364
      7363      7365      7366      7367      7366      7368      7369      7370
      7369      7371      7372      7373      7372      7374      7375      7376
      7375      7377      7378      7379      7378      7380      7381      7382
      7381      7383      7384      7385      7384      7386      7387      7388
      7387      7389      7390      7391      7390      7392      7393      7394
      7393      7395      7396      7397      7396      7398      7399      7400
      7399      7401      7402      7403      7402      7404      7405      7406
      7405      7407      7408      7409      7408      7410      7411      7412
      7411      7413      7414      7415      7414      7416      7417      7418
      7417      7419      7420      7421      7420      7422      7423      7424
      7423      7425      7426      7427      7426      7428      7429      7430
      7429      7431      7432      7433      7432      7434      7435      7436
      7435      7437      7438      7439      7438      7440      7441      7442
      7441      7443      7444      7445      7444      7446      7447      7448
      7447      7449      7450      7451      7450      7452      7453      7454
      7453      7455      7456      7457      7456      7458      7459      7460
      7459      7461      7462      7463      7462      7464      7465      7466
      7465      7467      7468      7469      7468      7470      7471      7472
      7471      7473      7474      7475      7474      7476      7477      7478
      7477      7479      7480      7481      7480      7482      7483      7484
      7483      7485      7486      7487      7486      7488      7489      7490
      7489      7491      7492      7493      7492      7494      7495      7496
      7495      7497      7498      7499      7498      7500      7501      7502
      7501      7503      7504      7505      7504      7506      7507      7508
      7507      7509      7510      7511      7510      7512      7513      7514
      7513      7515      7516      7517      7516      7518      7519      7520
      7519      7521      7522      7523      7522      7524      7525      7526
      7525      7527      7528      7529      7528      7530      7531      7532
      7531      7533      7534      7535      7534      7536      7537      7538
      7537      7539      7540      7541      7540      7542      7543      7544
      7543      7545      7546      7547      7546      7548      7549      7550
      7549      7551      7552      7553      7552      7554      7555      7556
      7555      7557      7558      7559      7558      7560      7561      7562
      7561      7563      7564      7565      7564      7566      7567      7568
      7567      7569      7570      7571      7570      7572      7573      7574
      7573      7575      7576      7577      7576      7578      7579      7580
      7579      7581      7582      7583      7582      7584      7585      7586
      7585      7587      7588      7589      7588      7590      7591      7592
      7591      7593      7594      7595      7594      7596      7597      7598
      7597      7599      7600      7601      7600      7602      7603      7604
      7603      7605      7606      7607      7606      7608      7609      7610
      7609      7611      7612      7613      7612      7614      7615      7616
      7615      7617      7618      7619      7618      7620      7621      7622
      7621      7623      7624      7625      7624      7626      7627      7628
      7627      7629      7630      7631      7630      7632      7633      7634
      7633      7635      7636      7637      7636      7638      7639      7640
      7639      7641      7642      7643      7642      7644      7645      7646
      7645      7647      7648      7649      7648      7650      7651      7652
      7651      7653      7654      7655      7654      7656      7657      7658
      7657      7659      7660      7661      7660      7662      7663      7664
      7663      7665      7666      7667      7666      7668      7669      7670
      7669      7671      7672      7673      7672      7674      7675      7676
      7675      7677      7678      7679      7678      7680      7681      7682
      7681      7683      7684      7685      7684      7686      7687      7688
      7687      7689      7690      7691      7690      7692      7693      7694
      7693      7695      7696      7697      7696      7698      7699      7700
      7699      7701      7702      7703      7702      7704      7705      7706
      7705      7707      7708      7709      7708      7710      7711      7712
      7711      7713      7714      7715      7714      7716      7717      7718
      7717      7719      7720      7721      7720      7722      7723      7724
      7723      7725      7726      7727      7726      7728      7729      7730
      7729      7731      7732      7733      7732      7734      7735      7736
      7735      7737      7738      7739      7738      7740      7741      7742
      7741      7743      7744      7745      7744      7746      7747      7748
      7747      7749      7750      7751      7750      7752      7753      7754
      7753      7755      7756      7757      7756      7758      7759      7760
      7759      7761      7762      7763      7762      7764      7765      7766
      7765      7767      7768      7769      7768      7770      7771      7772
      7771      7773      7774      7775      7774      7776      7777      7778
      7777      7779      7780      7781      7780      7782      7783      7784
      7783      7785      7786      7787      7786      7788      7789      7790
      7789      7791      7792      7793      7792      7794      7795      7796
      7795      7797      7798      7799      7798      7800      7801      7802
      7801      7803      7804      7805      7804      7806      7807      7808
      7807      7809      7810      7811      7810      7812      7813      7814
      7813      7815      7816      7817      7816      7818      7819      7820
      7819      7821      7822      7823      7822      7824      7825      7826
      7825      7827      7828      7829      7828      7830      7831      7832
      7831      7833      7834      7835      7834      7836      7837      7838
      7837      7839      7840      7841      7840      7842      7843      7844
      7843      7845      7846      7847      7846      7848      7849      7850
      7849      7851      7852      7853      7852      7854      7855      7856
      7855      7857      7858      7859      7858      7860      7861      7862
      7861      7863      7864      7865      7864      7866      7867      7868
      7867      7869      7870      7871      7870      7872      7873      7874
      7873      7875      7876      7877      7876      7878      7879      7880
      7879      7881      7882      7883      7882      7884      7885      7886
      7885      7887      7888      7889      7888      7890      7891      7892
      7891      7893      7894      7895      7894      7896      7897      7898
      7897      7899      7900      7901      7900      7902      7903      7904
      7903      7905      7906      7907      7906      7908      7909      7910
      7909      7911      7912      7913      7912      7914      7915      7916
      7915      7917      7918      7919      7918      7920      7921      7922
      7921      7923      7924      7925      7924      7926      7927      7928
      7927      7929      7930      7931      7930      7932      7933      7934
      7933      7935      7936      7937      7936      7938      7939      7940
      7939      7941      7942      7943      7942      7944      7945      7946
      7945      7947      7948      7949      7948      7950      7951      7952
      7951      7953      7954      7955      7954      7956      7957      7958
      7957      7959      7960      7961      7960      7962      7963      7964
      7963      7965      7966      7967      7966      7968      7969      7970
      7969      7971      7972      7973      7972      7974      7975      7976
      7975      7977      7978      7979      7978      7980      7981      7982
      7981      7983      7984      7985      7984      7986      7987      7988
      7987      7989      7990      7991      7990      7992      7993      7994
      7993      7995      7996      7997      7996      7998      7999      8000
      7999      8001      8002      8003      8002      8004      8005      8006
      8005      8007      8008      8009      8008      8010      8011      8012
      8011      8013      8014      8015      8014      8016      8017      8018
      8017      8019      8020      8021      8020      8022      8023      8024
      8023      8025      8026      8027      8026      8028      8029      8030
      8029      8031      8032      8033      8032      8034      8035      8036
      8035      8037      8038      8039      8038      8040      8041      8042
      8041      8043      8044      8045      8044      8046      8047      8048
      8047      8049      8050      8051      8050      8052      8053      8054
      8053      8055      8056      8057      8056      8058      8059      8060
      8059      8061      8062      8063      8062      8064      8065      8066
      8065      8067      8068      8069      8068      8070      8071      8072
      8071      8073      8074      8075      8074      8076      8077      8078
      8077      8079      8080      8081      8080      8082      8083      8084
      8083      8085      8086      8087      8086      8088      8089      8090
      8089      8091      8092      8093      8092      8094      8095      8096
      8095      8097      8098      8099      8098      8100      8101      8102
      8101      8103      8104      8105      8104      8106      8107      8108
      8107      8109      8110      8111      8110      8112      8113      8114
      8113      8115      8116      8117      8116      8118      8119      8120
      8119      8121      8122      8123      8122      8124      8125      8126
      8125      8127      8128      8129      8128      8130      8131      8132
      8131      8133      8134      8135      8134      8136      8137      8138
      8137      8139      8140      8141      8140      8142      8143      8144
      8143      8145      8146      8147      8146      8148      8149      8150
      8149      8151      8152      8153      8152      8154      8155      8156
      8155      8157      8158      8159      8158      8160      8161      8162
      8161      8163      8164      8165      8164      8166      8167      8168
      8167      8169      8170      8171      8170      8172      8173      8174
      8173      8175      8176      8177      8176      8178      8179      8180
      8179      8181      8182      8183      8182      8184      8185      8186
      8185      8187      8188      8189      8188      8190      8191      8192
      8191      8193      8194      8195      8194      8196      8197      8198
      8197      8199      8200      8201      8200      8202      8203      8204
      8203      8205      8206      8207      8206      8208      8209      8210
      8209      8211      8212      8213      8212      8214      8215      8216
      8215      8217      8218      8219      8218      8220      8221      8222
      8221      8223      8224      8225      8224      8226      8227      8228
      8227      8229      8230      8231      8230      8232      8233      8234
      8233      8235      8236      8237      8236      8238      8239      8240
      8239      8241      8242      8243      8242      8244      8245      8246
      8245      8247      8248      8249      8248      8250      8251      8252
      8251      8253      8254      8255      8254      8256      8257      8258
      8257      8259      8260      8261      8260      8262      8263      8264
      8263      8265      8266      8267      8266      8268      8269      8270
      8269      8271      8272      8273      8272      8274      8275      8276
      8275      8277      8278      8279      8278      8280      8281      8282
      8281      8283      8284      8285      8284      8286      8287      8288
      8287      8289      8290      8291      8290      8292      8293      8294
      8293      8295      8296      8297      8296      8298      8299      8300
      8299      8301      8302      8303      8302      8304      8305      8306
      8305      8307      8308      8309      8308      8310      8311      8312
      8311      8313      8314      8315      8314      8316      8317      8318
      8317      8319      8320      8321      8320      8322      8323      8324
      8323      8325      8326      8327      8326      8328      8329      8330
      8329      8331      8332      8333      8332      8334      8335      8336
      8335      8337      8338      8339      8338      8340      8341      8342
      8341      8343      8344      8345      8344      8346      8347      8348
      8347      8349      8350      8351      8350      8352      8353      8354
      8353      8355      8356      8357      8356      8358      8359      8360
      8359      8361      8362      8363      8362      8364      8365      8366
      8365      8367      8368      8369      8368      8370      8371      8372
      8371      8373      8374      8375      8374      8376      8377      8378
      8377      8379      8380      8381      8380      8382      8383      8384
      8383      8385      8386      8387      8386      8388      8389      8390
      8389      8391      8392      8393      8392      8394      8395      8396
      8395      8397      8398      8399      8398      8400      8401      8402
      8401      8403      8404      8405      8404      8406      8407      8408
      8407      8409      8410      8411      8410      8412      8413      8414
      8413      8415      8416      8417      8416      8418      8419      8420
      8419      8421      8422      8423      8422      8424      8425      8426
      8425      8427      8428      8429      8428      8430      8431      8432
      8431      8433      8434      8435      8434      8436      8437      8438
      8437      8439      8440      8441      8440      8442      8443      8444
      8443      8445      8446      8447      8446      8448      8449      8450
      8449      8451      8452      8453      8452      8454      8455      8456
      8455      8457      8458      8459      8458      8460      8461      8462
      8461      8463      8464      8465      8464      8466      8467      8468
      8467      8469      8470      8471      8470      8472      8473      8474
      8473      8475      8476      8477      8476      8478      8479      8480
      8479      8481      8482      8483      8482      8484      8485      8486
      8485      8487      8488      8489      8488      8490      8491      8492
      8491      8493      8494      8495      8494      8496      8497      8498
      8497      8499      8500      8501      8500      8502      8503      8504
      8503      8505      8506      8507      8506      8508      8509      8510
      8509      8511      8512      8513      8512      8514      8515      8516
      8515      8517      8518      8519      8518      8520      8521      8522
      8521      8523      8524      8525      8524      8526      8527      8528
      8527      8529      8530      8531      8530      8532      8533      8534
      8533      8535      8536      8537      8536      8538      8539      8540
      8539      8541      8542      8543      8542      8544      8545      8546
      8545      8547      8548      8549      8548      8550      8551      8552
      8551      8553      8554      8555      8554      8556      8557      8558
      8557      8559      8560      8561      8560      8562      8563      8564
      8563      8565      8566      8567      8566      8568      8569      8570
      8569      8571      8572      8573      8572      8574      8575      8576
      8575      8577      8578      8579      8578      8580      8581      8582
      8581      8583      8584      8585      8584      8586      8587      8588
      8587      8589      8590      8591      8590      8592      8593      8594
      8593      8595      8596      8597      8596      8598      8599      8600
      8599      8601      8602      8603      8602      8604      8605      8606
      8605      8607      8608      8609      8608      8610      8611      8612
      8611      8613      8614      8615      8614      8616      8617      8618
      8617      8619      8620      8621      8620      8622      8623      8624
      8623      8625      8626      8627      8626      8628      8629      8630
      8629      8631      8632      8633      8632      8634      8635      8636
      8635      8637      8638      8639      8638      8640      8641      8642
      8641      8643      8644      8645      8644      8646      8647      8648
      8647      8649      8650      8651      8650      8652      8653      8654
      8653      8655      8656      8657      8656      8658      8659      8660
      8659      8661      8662      8663      8662      8664      8665      8666
      8665      8667      8668      8669      8668      8670      8671      8672
      8671      8673      8674      8675      8674      8676      8677      8678
      8677      8679      8680      8681      8680      8682      8683      8684
      8683      8685      8686      8687      8686      8688      8689      8690
      8689      8691      8692      8693      8692      8694      8695      8696
      8695      8697      8698      8699      8698      8700      8701      8702
      8701      8703      8704      8705      8704      8706      8707      8708
      8707      8709      8710      8711      8710      8712      8713      8714
      8713      8715      8716      8717      8716      8718      8719      8720
      8719      8721      8722      8723      8722      8724      8725      8726
      8725      8727      8728      8729      8728      8730      8731      8732
      8731      8733      8734      8735      8734      8736      8737      8738
      8737      8739      8740      8741      8740      8742      8743      8744
      8743      8745      8746      8747      8746      8748      8749      8750
      8749      8751      8752      8753      8752      8754      8755      8756
      8755      8757      8758      8759      8758      8760      8761      8762
      8761      8763      8764      8765      8764      8766      8767      8768
      8767      8769      8770      8771      8770      8772      8773      8774
      8773      8775      8776      8777      8776      8778      8779      8780
      8779      8781      8782      8783      8782      8784      8785      8786
      8785      8787      8788      8789      8788      8790      8791      8792
      8791      8793      8794      8795      8794      8796      8797      8798
      8797      8799      8800      8801      8800      8802      8803      8804
      8803      8805      8806      8807      8806      8808      8809      8810
      8809      8811      8812      8813      8812      8814      8815      8816
      8815      8817      8818      8819      8818      8820      8821      8822
      8821      8823      8824      8825      8824      8826      8827      8828
      8827      8829      8830      8831      8830      8832      8833      8834
      8833      8835      8836      8837      8836      8838      8839      8840
      8839      8841      8842      8843      8842      8844      8845      8846
      8845      8847      8848      8849      8848      8850      8851      8852
      8851      8853      8854      8855      8854      8856      8857      8858
      8857      8859      8860      8861      8860      8862      8863      8864
      8863      8865      8866      8867      8866      8868      8869      8870
      8869      8871      8872      8873      8872      8874      8875      8876
      8875      8877      8878      8879      8878      8880      8881      8882
      8881      8883      8884      8885      8884      8886      8887      8888
      8887      8889      8890      8891      8890      8892      8893      8894
      8893      8895      8896      8897      8896      8898      8899      8900
      8899      8901      8902      8903      8902      8904      8905      8906
      8905      8907      8908      8909      8908      8910      8911      8912
      8911      8913      8914      8915      8914      8916      8917      8918
      8917      8919      8920      8921      8920      8922      8923      8924
      8923      8925      8926      8927      8926      8928      8929      8930
      8929      8931      8932      8933      8932      8934      8935      8936
      8935      8937      8938      8939      8938      8940      8941      8942
      8941      8943      8944      8945      8944      8946      8947      8948
      8947      8949      8950      8951      8950      8952      8953      8954
      8953      8955      8956      8957      8956      8958      8959      8960
      8959      8961      8962      8963      8962      8964      8965      8966
      8965      8967      8968      8969      8968      8970      8971      8972
      8971      8973      8974      8975      8974      8976      8977      8978
      8977      8979      8980      8981      8980      8982      8983      8984
      8983      8985      8986      8987      8986      8988      8989      8990
      8989      8991      8992      8993      8992      8994      8995      8996
      8995      8997      8998      8999      8998      9000      9001      9002
      9001      9003      9004      9005      9004      9006      9007      9008
      9007      9009      9010      9011      9010      9012      9013      9014
      9013      9015      9016      9017      9016      9018      9019      9020
      9019      9021      9022      9023      9022      9024      9025      9026
      9025      9027      9028      9029      9028      9030      9031      9032
      9031      9033      9034      9035      9034      9036      9037      9038
      9037      9039      9040      9041      9040      9042      9043      9044
      9043      9045      9046      9047      9046      9048      9049      9050
      9049      9051      9052      9053      9052      9054      9055      9056
      9055      9057      9058      9059      9058      9060      9061      9062
      9061      9063      9064      9065      9064      9066      9067      9068
      9067      9069      9070      9071      9070      9072      9073      9074
      9073      9075      9076      9077      9076      9078      9079      9080
      9079      9081      9082      9083      9082      9084      9085      9086
      9085      9087      9088      9089      9088      9090      9091      9092
      9091      9093      9094      9095      9094      9096      9097      9098
      9097      9099      9100      9101      9100      9102      9103      9104
      9103      9105      9106      9107      9106      9108      9109      9110
      9109      9111      9112      9113      9112      9114      9115      9116
      9115      9117      9118      9119      9118      9120      9121      9122
      9121      9123      9124      9125      9124      9126      9127      9128
      9127      9129      9130      9131      9130      9132      9133      9134
      9133      9135      9136      9137      9136      9138      9139      9140
      9139      9141      9142      9143      9142      9144      9145      9146
      9145      9147      9148      9149      9148      9150      9151      9152
      9151      9153      9154      9155      9154      9156      9157      9158
      9157      9159      9160      9161      9160      9162      9163      9164
      9163      9165      9166      9167      9166      9168      9169      9170
      9169      9171      9172      9173      9172      9174      9175      9176
      9175      9177      9178      9179      9178      9180      9181      9182
      9181      9183      9184      9185      9184      9186      9187      9188
      9187      9189      9190      9191      9190      9192      9193      9194
      9193      9195      9196      9197      9196      9198      9199      9200
      9199      9201      9202      9203      9202      9204      9205      9206
      9205      9207      9208      9209      9208      9210      9211      9212
      9211      9213      9214      9215      9214      9216      9217      9218
      9217      9219      9220      9221      9220      9222      9223      9224
      9223      9225      9226      9227      9226      9228      9229      9230
      9229      9231      9232      9233      9232      9234      9235      9236
      9235      9237      9238      9239      9238      9240      9241      9242
      9241      9243      9244      9245      9244      9246      9247      9248
      9247      9249      9250      9251      9250      9252      9253      9254
      9253      9255      9256      9257      9256      9258      9259      9260
      9259      9261      9262      9263      9262      9264      9265      9266
      9265      9267      9268      9269      9268      9270      9271      9272
      9271      9273      9274      9275      9274      9276      9277      9278
      9277      9279      9280      9281      9280      9282      9283      9284
      9283      9285      9286      9287      9286      9288      9289      9290
      9289      9291      9292      9293      9292      9294      9295      9296
      9295      9297      9298      9299      9298      9300      9301      9302
      9301      9303      9304      9305      9304      9306      9307      9308
      9307      9309      9310      9311      9310      9312      9313      9314
      9313      9315      9316      9317      9316      9318      9319      9320
      9319      9321      9322      9323      9322      9324      9325      9326
      9325      9327      9328      9329      9328      9330      9331      9332
      9331      9333      9334      9335      9334      9336      9337      9338
      9337      9339      9340      9341      9340      9342      9343      9344
      9343      9345      9346      9347      9346      9348      9349      9350
      9349      9351      9352      9353      9352      9354      9355      9356
      9355      9357      9358      9359      9358      9360      9361      9362
      9361      9363      9364      9365      9364      9366      9367      9368
      9367      9369      9370      9371      9370      9372      9373      9374
      9373      9375      9376      9377      9376      9378      9379      9380
      9379      9381      9382      9383      9382      9384      9385      9386
      9385      9387      9388      9389      9388      9390      9391      9392
      9391      9393      9394      9395      9394      9396      9397      9398
      9397      9399      9400      9401      9400      9402      9403      9404
      9403      9405      9406      9407      9406      9408      9409      9410
      9409      9411      9412      9413      9412      9414      9415      9416
      9415      9417      9418      9419      9418      9420      9421      9422
      9421      9423      9424      9425      9424      9426      9427      9428
      9427      9429      9430      9431      9430      9432      9433      9434
      9433      9435      9436      9437      9436      9438      9439      9440
      9439      9441      9442      9443      9442      9444      9445      9446
      9445      9447      9448      9449      9448      9450      9451      9452
      9451      9453      9454      9455      9454      9456      9457      9458
      9457      9459      9460      9461      9460      9462      9463      9464
      9463      9465      9466      9467      9466      9468      9469      9470
      9469      9471      9472      9473      9472      9474      9475      9476
      9475      9477      9478      9479      9478      9480      9481      9482
      9481      9483      9484      9485      9484      9486      9487      9488
      9487      9489      9490      9491      9490      9492      9493      9494
      9493      9495      9496      9497      9496      9498      9499      9500
      9499      9501      9502      9503      9502      9504      9505      9506
      9505      9507      9508      9509      9508      9510      9511      9512
      9511      9513      9514      9515      9514      9516      9517      9518
      9517      9519      9520      9521      9520      9522      9523      9524
      9523      9525      9526      9527      9526      9528      9529      9530
      9529      9531      9532      9533      9532      9534      9535      9536
      9535      9537      9538      9539      9538      9540      9541      9542
      9541      9543      9544      9545      9544      9546      9547      9548
      9547      9549      9550      9551      9550      9552      9553      9554
      9553      9555      9556      9557      9556      9558      9559      9560
      9559      9561      9562      9563      9562      9564      9565      9566
      9565      9567      9568      9569      9568      9570      9571      9572
      9571      9573      9574      9575      9574      9576      9577      9578
      9577      9579      9580      9581      9580      9582      9583      9584
      9583      9585      9586      9587      9586      9588      9589      9590
      9589      9591      9592      9593      9592      9594      9595      9596
      9595      9597      9598      9599      9598      9600      9601      9602
      9601      9603      9604      9605      9604      9606      9607      9608
      9607      9609      9610      9611      9610      9612      9613      9614
      9613      9615      9616      9617      9616      9618      9619      9620
      9619      9621      9622      9623      9622      9624      9625      9626
      9625      9627      9628      9629      9628      9630      9631      9632
      9631      9633      9634      9635      9634      9636      9637      9638
      9637      9639      9640      9641      9640      9642      9643      9644
      9643      9645      9646      9647      9646      9648      9649      9650
      9649      9651      9652      9653      9652      9654      9655      9656
      9655      9657      9658      9659      9658      9660      9661      9662
      9661      9663      9664      9665      9664      9666      9667      9668
      9667      9669      9670      9671      9670      9672      9673      9674
      9673      9675      9676      9677      9676      9678      9679      9680
      9679      9681      9682      9683      9682      9684      9685      9686
      9685      9687      9688      9689      9688      9690      9691      9692
      9691      9693      9694      9695      9694      9696      9697      9698
      9697      9699      9700      9701      9700      9702      9703      9704
      9703      9705      9706      9707      9706      9708      9709      9710
      9709      9711      9712      9713      9712      9714      9715      9716
      9715      9717      9718      9719      9718      9720      9721      9722
      9721      9723      9724      9725      9724      9726      9727      9728
      9727      9729      9730      9731      9730      9732      9733      9734
      9733      9735      9736      9737      9736      9738      9739      9740
      9739      9741      9742      9743      9742      9744      9745      9746
      9745      9747      9748      9749      9748      9750      9751      9752
      9751      9753      9754      9755      9754      9756      9757      9758
      9757      9759      9760      9761      9760      9762      9763      9764
      9763      9765      9766      9767      9766      9768      9769      9770
      9769      9771      9772      9773      9772      9774      9775      9776
      9775      9777      9778      9779      9778      9780      9781      9782
      9781      9783      9784      9785      9784      9786      9787      9788
      9787      9789      9790      9791      9790      9792      9793      9794
      9793      9795      9796      9797      9796      9798      9799      9800
      9799      9801      9802      9803      9802      9804      9805      9806
      9805      9807      9808      9809      9808      9810      9811      9812
      9811      9813      9814      9815      9814      9816      9817      9818
      9817      9819      9820      9821      9820      9822      9823      9824
      9823      9825      9826      9827      9826      9828      9829      9830
      9829      9831      9832      9833      9832      9834      9835      9836
      9835      9837      9838      9839      9838      9840      9841      9842
      9841      9843      9844      9845      9844      9846      9847      9848
      9847      9849      9850      9851      9850      9852      9853      9854
      9853      9855      9856      9857      9856      9858      9859      9860
      9859      9861      9862      9863      9862      9864      9865      9866
      9865      9867      9868      9869      9868      9870      9871      9872
      9871      9873      9874      9875      9874      9876      9877      9878
      9877      9879      9880      9881      9880      9882      9883      9884
      9883      9885      9886      9887      9886      9888      9889      9890
      9889      9891      9892      9893      9892      9894      9895      9896
      9895      9897      9898      9899      9898      9900      9901      9902
      9901      9903      9904      9905      9904      9906      9907      9908
      9907      9909      9910      9911      9910      9912      9913      9914
      9913      9915      9916      9917      9916      9918      9919      9920
      9919      9921      9922      9923      9922      9924      9925      9926
      9925      9927      9928      9929      9928      9930      9931      9932
      9931      9933      9934      9935      9934      9936      9937      9938
      9937      9939      9940      9941      9940      9942      9943      9944
      9943      9945      9946      9947      9946      9948      9949      9950
      9949      9951      9952      9953      9952      9954      9955      9956
      9955      9957      9958      9959      9958      9960      9961      9962
      9961      9963      9964      9965      9964      9966      9967      9968
      9967      9969      9970      9971      9970      9972      9973      9974
      9973      9975      9976      9977      9976      9978      9979      9980
      9979      9981      9982      9983      9982      9984      9985      9986
      9985      9987      9988      9989      9988      9990      9991      9992
      9991      9993      9994      9995      9994      9996      9997      9998
      9997      9999     10000     10001     10000     10002     10003     10004
     10003     10005     10006     10007     10006     10008     10009     10010
     10009     10011     10012     10013     10012     10014     10015     10016
     10015     10017     10018     10019     10018     10020     10021     10022
     10021     10023     10024     10025     10024     10026     10027     10028
     10027     10029     10030     10031     10030     10032     10033     10034
     10033     10035     10036     10037     10036     10038     10039     10040
     10039     10041     10042     10043     10042     10044     10045     10046
     10045     10047     10048     10049     10048     10050     10051     10052
     10051     10053     10054     10055     10054     10056     10057     10058
     10057     10059     10060     10061     10060     10062     10063     10064
     10063     10065     10066     10067     10066     10068     10069     10070
     10069     10071     10072     10073     10072     10074     10075     10076
     10075     10077     10078     10079     10078     10080     10081     10082
     10081     10083     10084     10085     10084     10086     10087     10088
     10087     10089     10090     10091     10090     10092     10093     10094
     10093     10095     10096     10097     10096     10098     10099     10100
     10099     10101     10102     10103     10102     10104     10105     10106
     10105     10107     10108     10109     10108     10110     10111     10112
     10111     10113     10114     10115     10114     10116     10117     10118
     10117     10119     10120     10121     10120     10122     10123     10124
     10123     10125     10126     10127     10126     10128     10129     10130
     10129     10131     10132     10133     10132     10134     10135     10136
     10135     10137     10138     10139     10138     10140     10141     10142
     10141     10143     10144     10145     10144     10146     10147     10148
     10147     10149     10150     10151     10150     10152     10153     10154
     10153     10155     10156     10157     10156     10158     10159     10160
     10159     10161     10162     10163     10162     10164     10165     10166
     10165     10167     10168     10169     10168     10170     10171     10172
     10171     10173     10174     10175     10174     10176     10177     10178
     10177     10179     10180     10181     10180     10182     10183     10184
     10183     10185     10186     10187     10186     10188     10189     10190
     10189     10191     10192     10193     10192     10194     10195     10196
     10195     10197     10198     10199     10198     10200     10201     10202
     10201     10203     10204     10205     10204     10206     10207     10208
     10207     10209     10210     10211     10210     10212     10213     10214
     10213     10215     10216     10217     10216     10218     10219     10220
     10219     10221     10222     10223     10222     10224     10225     10226
     10225     10227     10228     10229     10228     10230     10231     10232
     10231     10233     10234     10235     10234     10236     10237     10238
     10237     10239     10240     10241     10240     10242     10243     10244
     10243     10245     10246     10247     10246     10248     10249     10250
     10249     10251     10252     10253     10252     10254     10255     10256
     10255     10257     10258     10259     10258     10260     10261     10262
     10261     10263     10264     10265     10264     10266     10267     10268
     10267     10269     10270     10271     10270     10272     10273     10274
     10273     10275     10276     10277     10276     10278     10279     10280
     10279     10281     10282     10283     10282     10284     10285     10286
     10285     10287     10288     10289     10288     10290     10291     10292
     10291     10293     10294     10295     10294     10296     10297     10298
     10297     10299     10300     10301     10300     10302     10303     10304
     10303     10305     10306     10307     10306     10308     10309     10310
     10309     10311     10312     10313     10312     10314     10315     10316
     10315     10317     10318     10319     10318     10320     10321     10322
     10321     10323     10324     10325     10324     10326     10327     10328
     10327     10329     10330     10331     10330     10332     10333     10334
     10333     10335     10336     10337     10336     10338     10339     10340
     10339     10341     10342     10343     10342     10344     10345     10346
     10345     10347     10348     10349     10348     10350     10351     10352
     10351     10353     10354     10355     10354     10356     10357     10358
     10357     10359     10360     10361     10360     10362     10363     10364
     10363     10365     10366     10367     10366     10368     10369     10370
     10369     10371     10372     10373     10372     10374     10375     10376
     10375     10377     10378     10379     10378     10380     10381     10382
     10381     10383     10384     10385     10384     10386     10387     10388
     10387     10389     10390     10391     10390     10392     10393     10394
     10393     10395     10396     10397     10396     10398     10399     10400
     10399     10401     10402     10403     10402     10404     10405     10406
     10405     10407     10408     10409     10408     10410     10411     10412
     10411     10413     10414     10415     10414     10416     10417     10418
     10417     10419     10420     10421     10420     10422     10423     10424
     10423     10425     10426     10427     10426     10428     10429     10430
     10429     10431     10432     10433     10432     10434     10435     10436
     10435     10437     10438     10439     10438     10440     10441     10442
     10441     10443     10444     10445     10444     10446     10447     10448
     10447     10449     10450     10451     10450     10452     10453     10454
     10453     10455     10456     10457     10456     10458     10459     10460
     10459     10461     10462     10463     10462     10464     10465     10466
     10465     10467     10468     10469     10468     10470     10471     10472
     10471     10473     10474     10475     10474     10476     10477     10478
     10477     10479     10480     10481     10480     10482     10483     10484
     10483     10485     10486     10487     10486     10488     10489     10490
     10489     10491     10492     10493     10492     10494     10495     10496
     10495     10497     10498     10499     10498     10500     10501     10502
     10501     10503     10504     10505     10504     10506     10507     10508
     10507     10509     10510     10511     10510     10512     10513     10514
     10513     10515     10516     10517     10516     10518     10519     10520
     10519     10521     10522     10523     10522     10524     10525     10526
     10525     10527     10528     10529     10528     10530     10531     10532
     10531     10533     10534     10535     10534     10536     10537     10538
     10537     10539     10540     10541     10540     10542     10543     10544
     10543     10545     10546     10547     10546     10548     10549     10550
     10549     10551     10552     10553     10552     10554     10555     10556
     10555     10557     10558     10559     10558     10560     10561     10562
     10561     10563     10564     10565     10564     10566     10567     10568
     10567     10569     10570     10571     10570     10572     10573     10574
     10573     10575     10576     10577     10576     10578     10579     10580
     10579     10581     10582     10583     10582     10584     10585     10586
     10585     10587     10588     10589     10588     10590     10591     10592
     10591     10593     10594     10595     10594     10596     10597     10598
     10597     10599     10600     10601     10600     10602     10603     10604
     10603     10605     10606     10607     10606     10608     10609     10610
     10609     10611     10612     10613     10612     10614     10615     10616
     10615     10617     10618     10619     10618     10620     10621     10622
     10621     10623     10624     10625     10624     10626     10627     10628
     10627     10629     10630     10631     10630     10632     10633     10634
     10633     10635     10636     10637     10636     10638     10639     10640
     10639     10641     10642     10643     10642     10644     10645     10646
     10645     10647     10648     10649     10648     10650     10651     10652
     10651     10653     10654     10655     10654     10656     10657     10658
     10657     10659     10660     10661     10660     10662     10663     10664
     10663     10665     10666     10667     10666     10668     10669     10670
     10669     10671     10672     10673     10672     10674     10675     10676
     10675     10677     10678     10679     10678     10680     10681     10682
     10681     10683     10684     10685     10684     10686     10687     10688
     10687     10689     10690     10691     10690     10692     10693     10694
     10693     10695     10696     10697     10696     10698     10699     10700
     10699     10701     10702     10703     10702     10704     10705     10706
     10705     10707     10708     10709     10708     10710     10711     10712
     10711     10713     10714     10715     10714     10716     10717     10718
     10717     10719     10720     10721     10720     10722     10723     10724
     10723     10725     10726     10727     10726     10728     10729     10730
     10729     10731     10732     10733     10732     10734     10735     10736
     10735     10737     10738     10739     10738     10740     10741     10742
     10741     10743     10744     10745     10744     10746     10747     10748
     10747     10749     10750     10751     10750     10752     10753     10754
     10753     10755     10756     10757     10756     10758     10759     10760
     10759     10761     10762     10763     10762     10764     10765     10766
     10765     10767     10768     10769     10768     10770     10771     10772
     10771     10773     10774     10775     10774     10776     10777     10778
     10777     10779     10780     10781     10780     10782     10783     10784
     10783     10785     10786     10787     10786     10788     10789     10790
     10789     10791     10792     10793     10792     10794     10795     10796
     10795     10797     10798     10799     10798     10800     10801     10802
     10801     10803     10804     10805     10804     10806     10807     10808
     10807     10809     10810     10811     10810     10812     10813     10814
     10813     10815     10816     10817     10816     10818     10819     10820
     10819     10821     10822     10823     10822     10824     10825     10826
     10825     10827     10828     10829     10828     10830     10831     10832
     10831     10833     10834     10835     10834     10836     10837     10838
     10837     10839     10840     10841     10840     10842     10843     10844
     10843     10845     10846     10847     10846     10848     10849     10850
     10849     10851     10852     10853     10852     10854     10855     10856
     10855     10857     10858     10859     10858     10860     10861     10862
     10861     10863     10864     10865     10864     10866     10867     10868
     10867     10869     10870     10871     10870     10872     10873     10874
     10873     10875     10876     10877     10876     10878     10879     10880
     10879     10881     10882     10883     10882     10884     10885     10886
     10885     10887     10888     10889     10888     10890     10891     10892
     10891     10893     10894     10895     10894     10896     10897     10898
     10897     10899     10900     10901     10900     10902     10903     10904
     10903     10905     10906     10907     10906     10908     10909     10910
     10909     10911     10912     10913     10912     10914     10915     10916
     10915     10917     10918     10919     10918     10920     10921     10922
     10921     10923     10924     10925     10924     10926     10927     10928
     10927     10929     10930     10931     10930     10932     10933     10934
     10933     10935     10936     10937     10936     10938     10939     10940
     10939     10941     10942     10943     10942     10944     10945     10946
     10945     10947     10948     10949     10948     10950     10951     10952
     10951     10953     10954     10955     10954     10956     10957     10958
     10957     10959     10960     10961     10960     10962     10963     10964
     10963     10965     10966     10967     10966     10968     10969     10970
     10969     10971     10972     10973     10972     10974     10975     10976
     10975     10977     10978     10979     10978     10980     10981     10982
     10981     10983     10984     10985     10984     10986     10987     10988
     10987     10989     10990     10991     10990     10992     10993     10994
     10993     10995     10996     10997     10996     10998     10999     11000
     10999     11001     11002     11003     11002     11004     11005     11006
     11005     11007     11008     11009     11008     11010     11011     11012
     11011     11013     11014     11015     11014     11016     11017     11018
     11017     11019     11020     11021     11020     11022     11023     11024
     11023     11025     11026     11027     11026     11028     11029     11030
     11029     11031     11032     11033     11032     11034     11035     11036
     11035     11037     11038     11039     11038     11040     11041     11042
     11041     11043     11044     11045     11044     11046     11047     11048
     11047     11049     11050     11051     11050     11052     11053     11054
     11053     11055     11056     11057     11056     11058     11059     11060
     11059     11061     11062     11063     11062     11064     11065     11066
     11065     11067     11068     11069     11068     11070     11071     11072
     11071     11073     11074     11075     11074     11076     11077     11078
     11077     11079     11080     11081     11080     11082     11083     11084
     11083     11085     11086     11087     11086     11088     11089     11090
     11089     11091     11092     11093     11092     11094     11095     11096
     11095     11097     11098     11099     11098     11100     11101     11102
     11101     11103     11104     11105     11104     11106     11107     11108
     11107     11109     11110     11111     11110     11112     11113     11114
     11113     11115     11116     11117     11116     11118     11119     11120
     11119     11121     11122     11123     11122     11124     11125     11126
     11125     11127     11128     11129     11128     11130     11131     11132
     11131     11133     11134     11135     11134     11136     11137     11138
     11137     11139     11140     11141     11140     11142     11143     11144
     11143     11145     11146     11147     11146     11148     11149     11150
     11149     11151     11152     11153     11152     11154     11155     11156
     11155     11157     11158     11159     11158     11160     11161     11162
     11161     11163     11164     11165     11164     11166     11167     11168
     11167     11169     11170     11171     11170     11172     11173     11174
     11173     11175     11176     11177     11176     11178     11179     11180
     11179     11181     11182     11183     11182     11184     11185     11186
     11185     11187     11188     11189     11188     11190     11191     11192
     11191     11193     11194     11195     11194     11196     11197     11198
     11197     11199     11200     11201     11200     11202     11203     11204
     11203     11205     11206     11207     11206     11208     11209     11210
     11209     11211     11212     11213     11212     11214     11215     11216
     11215     11217     11218     11219     11218     11220     11221     11222
     11221     11223     11224     11225     11224     11226     11227     11228
     11227     11229     11230     11231     11230     11232     11233     11234
     11233     11235     11236     11237     11236     11238     11239     11240
     11239     11241     11242     11243     11242     11244     11245     11246
     11245     11247     11248     11249     11248     11250     11251     11252
     11251     11253     11254     11255     11254     11256     11257     11258
     11257     11259     11260     11261     11260     11262     11263     11264
     11263     11265     11266     11267     11266     11268     11269     11270
     11269     11271     11272     11273     11272     11274     11275     11276
     11275     11277     11278     11279     11278     11280     11281     11282
     11281     11283     11284     11285     11284     11286     11287     11288
     11287     11289     11290     11291     11290     11292     11293     11294
     11293     11295     11296     11297     11296     11298     11299     11300
     11299     11301     11302     11303     11302     11304     11305     11306
     11305     11307     11308     11309     11308     11310     11311     11312
     11311     11313     11314     11315     11314     11316     11317     11318
     11317     11319     11320     11321     11320     11322     11323     11324
     11323     11325     11326     11327     11326     11328     11329     11330
     11329     11331     11332     11333     11332     11334     11335     11336
     11335     11337     11338     11339     11338     11340     11341     11342
     11341     11343     11344     11345     11344     11346     11347     11348
     11347     11349     11350     11351     11350     11352     11353     11354
     11353     11355     11356     11357     11356     11358     11359     11360
     11359     11361     11362     11363     11362     11364     11365     11366
     11365     11367     11368     11369     11368     11370     11371     11372
     11371     11373     11374     11375     11374     11376     11377     11378
     11377     11379     11380     11381     11380     11382     11383     11384
     11383     11385     11386     11387     11386     11388     11389     11390
     11389     11391     11392     11393     11392     11394     11395     11396
     11395     11397     11398     11399     11398     11400     11401     11402
     11401     11403     11404     11405     11404     11406     11407     11408
     11407     11409     11410     11411     11410     11412     11413     11414
     11413     11415     11416     11417     11416     11418     11419     11420
     11419     11421     11422     11423     11422     11424     11425     11426
     11425     11427     11428     11429     11428     11430     11431     11432
     11431     11433     11434     11435     11434     11436     11437     11438
     11437     11439     11440     11441     11440     11442     11443     11444
     11443     11445     11446     11447     11446     11448     11449     11450
     11449     11451     11452     11453     11452     11454     11455     11456
     11455     11457     11458     11459     11458     11460     11461     11462
     11461     11463     11464     11465     11464     11466     11467     11468
     11467     11469     11470     11471     11470     11472     11473     11474
     11473     11475     11476     11477     11476     11478     11479     11480
     11479     11481     11482     11483     11482     11484     11485     11486
     11485     11487     11488     11489     11488     11490     11491     11492
     11491     11493     11494     11495     11494     11496     11497     11498
     11497     11499     11500     11501     11500     11502     11503     11504
     11503     11505     11506     11507     11506     11508     11509     11510
     11509     11511     11512     11513     11512     11514     11515     11516
     11515     11517     11518     11519     11518     11520     11521     11522
     11521     11523     11524     11525     11524     11526     11527     11528
     11527     11529     11530     11531     11530     11532     11533     11534
     11533     11535     11536     11537     11536     11538     11539     11540
     11539     11541     11542     11543     11542     11544     11545     11546
     11545     11547     11548     11549     11548     11550     11551     11552
     11551     11553     11554     11555     11554     11556     11557     11558
     11557     11559     11560     11561     11560     11562     11563     11564
     11563     11565     11566     11567     11566     11568     11569     11570
     11569     11571     11572     11573     11572     11574     11575     11576
     11575     11577     11578     11579     11578     11580     11581     11582
     11581     11583     11584     11585     11584     11586     11587     11588
     11587     11589     11590     11591     11590     11592     11593     11594
     11593     11595     11596     11597     11596     11598     11599     11600
     11599     11601     11602     11603     11602     11604     11605     11606
     11605     11607     11608     11609     11608     11610     11611     11612
     11611     11613     11614     11615     11614     11616     11617     11618
     11617     11619     11620     11621     11620     11622     11623     11624
     11623     11625     11626     11627     11626     11628     11629     11630
     11629     11631     11632     11633     11632     11634     11635     11636
     11635     11637     11638     11639     11638     11640     11641     11642
     11641     11643     11644     11645     11644     11646     11647     11648
     11647     11649     11650     11651     11650     11652     11653     11654
     11653     11655     11656     11657     11656     11658     11659     11660
     11659     11661     11662     11663     11662     11664     11665     11666
     11665     11667     11668     11669     11668     11670     11671     11672
     11671     11673     11674     11675     11674     11676     11677     11678
     11677     11679     11680     11681     11680     11682     11683     11684
     11683     11685     11686     11687     11686     11688     11689     11690
     11689     11691     11692     11693     11692     11694     11695     11696
     11695     11697     11698     11699     11698     11700     11701     11702
     11701     11703     11704     11705     11704     11706     11707     11708
     11707     11709     11710     11711     11710     11712     11713     11714
     11713     11715     11716     11717     11716     11718     11719     11720
     11719     11721     11722     11723     11722     11724     11725     11726
     11725     11727     11728     11729     11728     11730     11731     11732
     11731     11733     11734     11735     11734     11736     11737     11738
     11737     11739     11740     11741     11740     11742     11743     11744
     11743     11745     11746     11747     11746     11748     11749     11750
     11749     11751     11752     11753     11752     11754     11755     11756
     11755     11757     11758     11759     11758     11760     11761     11762
     11761     11763     11764     11765     11764     11766     11767     11768
     11767     11769     11770     11771     11770     11772     11773     11774
     11773     11775     11776     11777     11776     11778     11779     11780
     11779     11781     11782     11783     11782     11784     11785     11786
     11785     11787     11788     11789     11788     11790     11791     11792
     11791     11793     11794     11795     11794     11796     11797     11798
     11797     11799     11800     11801     11800     11802     11803     11804
     11803     11805     11806     11807     11806     11808     11809     11810
     11809     11811     11812     11813     11812     11814     11815     11816
     11815     11817     11818     11819     11818     11820     11821     11822
     11821     11823     11824     11825     11824     11826     11827     11828
     11827     11829     11830     11831     11830     11832     11833     11834
     11833     11835     11836     11837     11836     11838     11839     11840
     11839     11841     11842     11843     11842     11844     11845     11846
     11845     11847     11848     11849     11848     11850     11851     11852
     11851     11853     11854     11855     11854     11856     11857     11858
     11857     11859     11860     11861     11860     11862     11863     11864
     11863     11865     11866     11867     11866     11868     11869     11870
     11869     11871     11872     11873     11872     11874     11875     11876
     11875     11877     11878     11879     11878     11880     11881     11882
     11881     11883     11884     11885     11884     11886     11887     11888
     11887     11889     11890     11891     11890     11892     11893     11894
     11893     11895     11896     11897     11896     11898     11899     11900
     11899     11901     11902     11903     11902     11904     11905     11906
     11905     11907     11908     11909     11908     11910     11911     11912
     11911     11913     11914     11915     11914     11916     11917     11918
     11917     11919     11920     11921     11920     11922     11923     11924
     11923     11925     11926     11927     11926     11928     11929     11930
     11929     11931     11932     11933     11932     11934     11935     11936
     11935     11937     11938     11939     11938     11940     11941     11942
     11941     11943     11944     11945     11944     11946     11947     11948
     11947     11949     11950     11951     11950     11952     11953     11954
     11953     11955     11956     11957     11956     11958     11959     11960
     11959     11961     11962     11963     11962     11964     11965     11966
     11965     11967     11968     11969     11968     11970     11971     11972
     11971     11973     11974     11975     11974     11976     11977     11978
     11977     11979     11980     11981     11980     11982     11983     11984
     11983     11985     11986     11987     11986     11988     11989     11990
     11989     11991     11992     11993     11992     11994     11995     11996
     11995     11997     11998     11999     11998     12000     12001     12002
     12001     12003     12004     12005     12004     12006     12007     12008
     12007     12009     12010     12011     12010     12012     12013     12014
     12013     12015     12016     12017     12016     12018     12019     12020
     12019     12021     12022     12023     12022     12024     12025     12026
     12025     12027     12028     12029     12028     12030     12031     12032
     12031     12033     12034     12035     12034     12036     12037     12038
     12037     12039     12040     12041     12040     12042     12043     12044
     12043     12045     12046     12047     12046     12048     12049     12050
     12049     12051     12052     12053     12052     12054     12055     12056
     12055     12057     12058     12059     12058     12060     12061     12062
     12061     12063     12064     12065     12064     12066     12067     12068
     12067     12069     12070     12071     12070     12072     12073     12074
     12073     12075     12076     12077     12076     12078     12079     12080
     12079     12081     12082     12083     12082     12084     12085     12086
     12085     12087     12088     12089     12088     12090     12091     12092
     12091     12093     12094     12095     12094     12096     12097     12098
     12097     12099     12100     12101     12100     12102     12103     12104
     12103     12105     12106     12107     12106     12108     12109     12110
     12109     12111     12112     12113     12112     12114     12115     12116
     12115     12117     12118     12119     12118     12120     12121     12122
     12121     12123     12124     12125     12124     12126     12127     12128
     12127     12129     12130     12131     12130     12132     12133     12134
     12133     12135     12136     12137     12136     12138     12139     12140
     12139     12141     12142     12143     12142     12144     12145     12146
     12145     12147     12148     12149     12148     12150     12151     12152
     12151     12153     12154     12155     12154     12156     12157     12158
     12157     12159     12160     12161     12160     12162     12163     12164
     12163     12165     12166     12167     12166     12168     12169     12170
     12169     12171     12172     12173     12172     12174     12175     12176
     12175     12177     12178     12179     12178     12180     12181     12182
     12181     12183     12184     12185     12184     12186     12187     12188
     12187     12189     12190     12191     12190     12192     12193     12194
     12193     12195     12196     12197     12196     12198     12199     12200
     12199     12201     12202     12203     12202     12204     12205     12206
     12205     12207     12208     12209     12208     12210     12211     12212
     12211     12213     12214     12215     12214     12216     12217     12218
     12217     12219     12220     12221     12220     12222     12223     12224
     12223     12225     12226     12227     12226     12228     12229     12230
     12229     12231     12232     12233     12232     12234     12235     12236
     12235     12237     12238     12239     12238     12240     12241     12242
     12241     12243     12244     12245     12244     12246     12247     12248
     12247     12249     12250     12251     12250     12252     12253     12254
     12253     12255     12256     12257     12256     12258     12259     12260
     12259     12261     12262     12263     12262     12264     12265     12266
     12265     12267     12268     12269     12268     12270     12271     12272
     12271     12273     12274     12275     12274     12276     12277     12278
     12277     12279     12280     12281     12280     12282     12283     12284
     12283     12285     12286     12287     12286     12288     12289     12290
     12289     12291     12292     12293     12292     12294     12295     12296
     12295     12297     12298     12299     12298     12300     12301     12302
     12301     12303     12304     12305     12304     12306     12307     12308
     12307     12309     12310     12311     12310     12312     12313     12314
     12313     12315     12316     12317     12316     12318     12319     12320
     12319     12321     12322     12323     12322     12324     12325     12326
     12325     12327     12328     12329     12328     12330     12331     12332
     12331     12333     12334     12335     12334     12336     12337     12338
     12337     12339     12340     12341     12340     12342     12343     12344
     12343     12345     12346     12347     12346     12348     12349     12350
     12349     12351     12352     12353     12352     12354     12355     12356
     12355     12357     12358     12359     12358     12360     12361     12362
     12361     12363     12364     12365     12364     12366     12367     12368
     12367     12369     12370     12371     12370     12372     12373     12374
     12373     12375     12376     12377     12376     12378     12379     12380
     12379     12381     12382     12383     12382     12384     12385     12386
     12385     12387     12388     12389     12388     12390     12391     12392
     12391     12393     12394     12395     12394     12396     12397     12398
     12397     12399     12400     12401     12400     12402     12403     12404
     12403     12405     12406     12407     12406     12408     12409     12410
     12409     12411     12412     12413     12412     12414     12415     12416
     12415     12417     12418     12419     12418     12420     12421     12422
     12421     12423     12424     12425     12424     12426     12427     12428
     12427     12429     12430     12431     12430     12432     12433     12434
     12433     12435     12436     12437     12436     12438     12439     12440
     12439     12441     12442     12443     12442     12444     12445     12446
     12445     12447     12448     12449     12448     12450     12451     12452
     12451     12453     12454     12455     12454     12456     12457     12458
     12457     12459     12460     12461     12460     12462     12463     12464
     12463     12465     12466     12467     12466     12468     12469     12470
     12469     12471     12472     12473     12472     12474     12475     12476
     12475     12477     12478     12479     12478     12480     12481     12482
     12481     12483     12484     12485     12484     12486     12487     12488
     12487     12489     12490     12491     12490     12492     12493     12494
     12493     12495     12496     12497     12496     12498     12499     12500
     12499     12501     12502     12503     12502     12504     12505     12506
     12505     12507     12508     12509     12508     12510     12511     12512
     12511     12513     12514     12515     12514     12516     12517     12518
     12517     12519     12520     12521     12520     12522     12523     12524
     12523     12525     12526     12527     12526     12528     12529     12530
     12529     12531     12532     12533     12532     12534     12535     12536
     12535     12537     12538     12539     12538     12540     12541     12542
     12541     12543     12544     12545     12544     12546     12547     12548
     12547     12549     12550     12551     12550     12552     12553     12554
     12553     12555     12556     12557     12556     12558     12559     12560
     12559     12561     12562     12563     12562     12564     12565     12566
     12565     12567     12568     12569     12568     12570     12571     12572
     12571     12573     12574     12575     12574     12576     12577     12578
     12577     12579     12580     12581     12580     12582     12583     12584
     12583     12585     12586     12587     12586     12588     12589     12590
     12589     12591     12592     12593     12592     12594     12595     12596
     12595     12597     12598     12599     12598     12600     12601     12602
     12601     12603     12604     12605     12604     12606     12607     12608
     12607     12609     12610     12611     12610     12612     12613     12614
     12613     12615     12616     12617     12616     12618     12619     12620
     12619     12621     12622     12623     12622     12624     12625     12626
     12625     12627     12628     12629     12628     12630     12631     12632
     12631     12633     12634     12635     12634     12636     12637     12638
     12637     12639     12640     12641     12640     12642     12643     12644
     12643     12645     12646     12647     12646     12648     12649     12650
     12649     12651     12652     12653     12652     12654     12655     12656
     12655     12657     12658     12659     12658     12660     12661     12662
     12661     12663     12664     12665     12664     12666     12667     12668
     12667     12669     12670     12671     12670     12672     12673     12674
     12673     12675     12676     12677     12676     12678     12679     12680
     12679     12681     12682     12683     12682     12684     12685     12686
     12685     12687     12688     12689     12688     12690     12691     12692
     12691     12693     12694     12695     12694     12696     12697     12698
     12697     12699     12700     12701     12700     12702     12703     12704
     12703     12705     12706     12707     12706     12708     12709     12710
     12709     12711     12712     12713     12712     12714     12715     12716
     12715     12717     12718     12719     12718     12720     12721     12722
     12721     12723     12724     12725     12724     12726     12727     12728
     12727     12729     12730     12731     12730     12732     12733     12734
     12733     12735     12736     12737     12736     12738     12739     12740
     12739     12741     12742     12743     12742     12744     12745     12746
     12745     12747     12748     12749     12748     12750     12751     12752
     12751     12753     12754     12755     12754     12756     12757     12758
     12757     12759     12760     12761     12760     12762     12763     12764
     12763     12765     12766     12767     12766     12768     12769     12770
     12769     12771     12772     12773     12772     12774     12775     12776
     12775     12777     12778     12779     12778     12780     12781     12782
     12781     12783     12784     12785     12784     12786     12787     12788
     12787     12789     12790     12791     12790     12792     12793     12794
     12793     12795     12796     12797     12796     12798     12799     12800
     12799     12801     12802     12803     12802     12804     12805     12806
     12805     12807     12808     12809     12808     12810     12811     12812
     12811     12813     12814     12815     12814     12816     12817     12818
     12817     12819     12820     12821     12820     12822     12823     12824
     12823     12825     12826     12827     12826     12828     12829     12830
     12829     12831     12832     12833     12832     12834     12835     12836
     12835     12837     12838     12839     12838     12840     12841     12842
     12841     12843     12844     12845     12844     12846     12847     12848
     12847     12849     12850     12851     12850     12852     12853     12854
     12853     12855     12856     12857     12856     12858     12859     12860
     12859     12861     12862     12863     12862     12864     12865     12866
     12865     12867     12868     12869     12868     12870     12871     12872
     12871     12873     12874     12875     12874     12876     12877     12878
     12877     12879     12880     12881     12880     12882     12883     12884
     12883     12885     12886     12887     12886     12888     12889     12890
     12889     12891     12892     12893     12892     12894     12895     12896
     12895     12897     12898     12899     12898     12900     12901     12902
     12901     12903     12904     12905     12904     12906     12907     12908
     12907     12909     12910     12911     12910     12912     12913     12914
     12913     12915     12916     12917     12916     12918     12919     12920
     12919     12921     12922     12923     12922     12924     12925     12926
     12925     12927     12928     12929     12928     12930     12931     12932
     12931     12933     12934     12935     12934     12936     12937     12938
     12937     12939     12940     12941     12940     12942     12943     12944
     12943     12945     12946     12947     12946     12948     12949     12950
     12949     12951     12952     12953     12952     12954     12955     12956
     12955     12957     12958     12959     12958     12960     12961     12962
     12961     12963     12964     12965     12964     12966     12967     12968
     12967     12969     12970     12971     12970     12972     12973     12974
     12973     12975     12976     12977     12976     12978     12979     12980
     12979     12981     12982     12983     12982     12984     12985     12986
     12985     12987     12988     12989     12988     12990     12991     12992
     12991     12993     12994     12995     12994     12996     12997     12998
     12997     12999     13000     13001     13000     13002     13003     13004
     13003     13005     13006     13007     13006     13008     13009     13010
     13009     13011     13012     13013     13012     13014     13015     13016
     13015     13017     13018     13019     13018     13020     13021     13022
     13021     13023     13024     13025     13024     13026     13027     13028
     13027     13029     13030     13031     13030     13032     13033     13034
     13033     13035     13036     13037     13036     13038     13039     13040
     13039     13041     13042     13043     13042     13044     13045     13046
     13045     13047     13048     13049     13048     13050     13051     13052
     13051     13053     13054     13055     13054     13056     13057     13058
     13057     13059     13060     13061     13060     13062     13063     13064
     13063     13065     13066     13067     13066     13068     13069     13070
     13069     13071     13072     13073     13072     13074     13075     13076
     13075     13077     13078     13079     13078     13080     13081     13082
     13081     13083     13084     13085     13084     13086     13087     13088
     13087     13089     13090     13091     13090     13092     13093     13094
     13093     13095     13096     13097     13096     13098     13099     13100
     13099     13101     13102     13103     13102     13104     13105     13106
     13105     13107     13108     13109     13108     13110     13111     13112
     13111     13113     13114     13115     13114     13116     13117     13118
     13117     13119     13120     13121     13120     13122     13123     13124
     13123     13125     13126     13127     13126     13128     13129     13130
     13129     13131     13132     13133     13132     13134     13135     13136
     13135     13137     13138     13139     13138     13140     13141     13142
     13141     13143     13144     13145     13144     13146     13147     13148
     13147     13149     13150     13151     13150     13152     13153     13154
     13153     13155     13156     13157     13156     13158     13159     13160
     13159     13161     13162     13163     13162     13164     13165     13166
     13165     13167     13168     13169     13168     13170     13171     13172
     13171     13173     13174     13175     13174     13176     13177     13178
     13177     13179     13180     13181     13180     13182     13183     13184
     13183     13185     13186     13187     13186     13188     13189     13190
     13189     13191     13192     13193     13192     13194     13195     13196
     13195     13197     13198     13199     13198     13200     13201     13202
     13201     13203     13204     13205     13204     13206     13207     13208
     13207     13209     13210     13211     13210     13212     13213     13214
     13213     13215     13216     13217     13216     13218     13219     13220
     13219     13221     13222     13223     13222     13224     13225     13226
     13225     13227     13228     13229     13228     13230     13231     13232
     13231     13233     13234     13235     13234     13236     13237     13238
     13237     13239     13240     13241     13240     13242     13243     13244
     13243     13245     13246     13247     13246     13248     13249     13250
     13249     13251     13252     13253     13252     13254     13255     13256
     13255     13257     13258     13259     13258     13260     13261     13262
     13261     13263     13264     13265     13264     13266     13267     13268
     13267     13269     13270     13271     13270     13272     13273     13274
     13273     13275     13276     13277     13276     13278     13279     13280
     13279     13281     13282     13283     13282     13284     13285     13286
     13285     13287     13288     13289     13288     13290     13291     13292
     13291     13293     13294     13295     13294     13296     13297     13298
     13297     13299     13300     13301     13300     13302     13303     13304
     13303     13305     13306     13307     13306     13308     13309     13310
     13309     13311     13312     13313     13312     13314     13315     13316
     13315     13317     13318     13319     13318     13320     13321     13322
     13321     13323     13324     13325     13324     13326     13327     13328
     13327     13329     13330     13331     13330     13332     13333     13334
     13333     13335     13336     13337     13336     13338     13339     13340
     13339     13341     13342     13343     13342     13344     13345     13346
     13345     13347     13348     13349     13348     13350     13351     13352
     13351     13353     13354     13355     13354     13356     13357     13358
     13357     13359     13360     13361     13360     13362     13363     13364
     13363     13365     13366     13367     13366     13368     13369     13370
     13369     13371     13372     13373     13372     13374     13375     13376
     13375     13377     13378     13379     13378     13380     13381     13382
     13381     13383     13384     13385     13384     13386     13387     13388
     13387     13389     13390     13391     13390     13392     13393     13394
     13393     13395     13396     13397     13396     13398     13399     13400
     13399     13401     13402     13403     13402     13404     13405     13406
     13405     13407     13408     13409     13408     13410     13411     13412
     13411     13413     13414     13415     13414     13416     13417     13418
     13417     13419     13420     13421     13420     13422     13423     13424
     13423     13425     13426     13427     13426     13428     13429     13430
     13429     13431     13432     13433     13432     13434     13435     13436
     13435     13437     13438     13439     13438     13440     13441     13442
     13441     13443     13444     13445     13444     13446     13447     13448
     13447     13449     13450     13451     13450     13452     13453     13454
     13453     13455     13456     13457     13456     13458     13459     13460
     13459     13461     13462     13463     13462     13464     13465     13466
     13465     13467     13468     13469     13468     13470     13471     13472
     13471     13473     13474     13475     13474     13476     13477     13478
     13477     13479     13480     13481     13480     13482     13483     13484
     13483     13485     13486     13487     13486     13488     13489     13490
     13489     13491     13492     13493     13492     13494     13495     13496
     13495     13497     13498     13499     13498     13500     13501     13502
     13501     13503     13504     13505     13504     13506     13507     13508
     13507     13509     13510     13511     13510     13512     13513     13514
     13513     13515     13516     13517     13516     13518     13519     13520
     13519     13521     13522     13523     13522     13524     13525     13526
     13525     13527     13528     13529     13528     13530     13531     13532
     13531     13533     13534     13535     13534     13536     13537     13538
     13537     13539     13540     13541     13540     13542     13543     13544
     13543     13545     13546     13547     13546     13548     13549     13550
     13549     13551     13552     13553     13552     13554     13555     13556
     13555     13557     13558     13559     13558     13560     13561     13562
     13561     13563     13564     13565     13564     13566     13567     13568
     13567     13569     13570     13571     13570     13572     13573     13574
     13573     13575     13576     13577     13576     13578     13579     13580
     13579     13581     13582     13583     13582     13584     13585     13586
     13585     13587     13588     13589     13588     13590     13591     13592
     13591     13593     13594     13595     13594     13596     13597     13598
     13597     13599     13600     13601     13600     13602     13603     13604
     13603     13605     13606     13607     13606     13608     13609     13610
     13609     13611     13612     13613     13612     13614     13615     13616
     13615     13617     13618     13619     13618     13620     13621     13622
     13621     13623     13624     13625     13624     13626     13627     13628
     13627     13629     13630     13631     13630     13632     13633     13634
     13633     13635     13636     13637     13636     13638     13639     13640
     13639     13641     13642     13643     13642     13644     13645     13646
     13645     13647     13648     13649     13648     13650     13651     13652
     13651     13653     13654     13655     13654     13656     13657     13658
     13657     13659     13660     13661     13660     13662     13663     13664
     13663     13665     13666     13667     13666     13668     13669     13670
     13669     13671     13672     13673     13672     13674     13675     13676
     13675     13677     13678     13679     13678     13680     13681     13682
     13681     13683     13684     13685     13684     13686     13687     13688
     13687     13689     13690     13691     13690     13692     13693     13694
     13693     13695     13696     13697     13696     13698     13699     13700
     13699     13701     13702     13703     13702     13704     13705     13706
     13705     13707     13708     13709     13708     13710     13711     13712
     13711     13713     13714     13715     13714     13716     13717     13718
     13717     13719     13720     13721     13720     13722     13723     13724
     13723     13725     13726     13727     13726     13728     13729     13730
     13729     13731     13732     13733     13732     13734     13735     13736
     13735     13737     13738     13739     13738     13740     13741     13742
     13741     13743     13744     13745     13744     13746     13747     13748
     13747     13749     13750     13751     13750     13752     13753     13754
     13753     13755     13756     13757     13756     13758     13759     13760
     13759     13761     13762     13763     13762     13764     13765     13766
     13765     13767     13768     13769     13768     13770     13771     13772
     13771     13773     13774     13775     13774     13776     13777     13778
     13777     13779     13780     13781     13780     13782     13783     13784
     13783     13785     13786     13787     13786     13788     13789     13790
     13789     13791     13792     13793     13792     13794     13795     13796
     13795     13797     13798     13799     13798     13800     13801     13802
     13801     13803     13804     13805     13804     13806     13807     13808
     13807     13809     13810     13811     13810     13812     13813     13814
     13813     13815     13816     13817     13816     13818     13819     13820
     13819     13821     13822     13823     13822     13824     13825     13826
     13825     13827     13828     13829     13828     13830     13831     13832
     13831     13833     13834     13835     13834     13836     13837     13838
     13837     13839     13840     13841     13840     13842     13843     13844
     13843     13845     13846     13847     13846     13848     13849     13850
     13849     13851     13852     13853     13852     13854     13855     13856
     13855     13857     13858     13859     13858     13860     13861     13862
     13861     13863     13864     13865     13864     13866     13867     13868
     13867     13869     13870     13871     13870     13872     13873     13874
     13873     13875     13876     13877     13876     13878     13879     13880
     13879     13881     13882     13883     13882     13884     13885     13886
     13885     13887     13888     13889     13888     13890     13891     13892
     13891     13893     13894     13895     13894     13896     13897     13898
     13897     13899     13900     13901     13900     13902     13903     13904
     13903     13905     13906     13907     13906     13908     13909     13910
     13909     13911     13912     13913     13912     13914     13915     13916
     13915     13917     13918     13919     13918     13920     13921     13922
     13921     13923     13924     13925     13924     13926     13927     13928
     13927     13929     13930     13931     13930     13932     13933     13934
     13933     13935     13936     13937     13936     13938     13939     13940
     13939     13941     13942     13943     13942     13944     13945     13946
     13945     13947     13948     13949     13948     13950     13951     13952
     13951     13953     13954     13955     13954     13956     13957     13958
     13957     13959     13960     13961     13960     13962     13963     13964
     13963     13965     13966     13967     13966     13968     13969     13970
     13969     13971     13972     13973     13972     13974     13975     13976
     13975     13977     13978     13979     13978     13980     13981     13982
     13981     13983     13984     13985     13984     13986     13987     13988
     13987     13989     13990     13991     13990     13992     13993     13994
     13993     13995     13996     13997     13996     13998     13999     14000
     13999     14001     14002     14003     14002     14004     14005     14006
     14005     14007     14008     14009     14008     14010     14011     14012
     14011     14013     14014     14015     14014     14016     14017     14018
     14017     14019     14020     14021     14020     14022     14023     14024
     14023     14025     14026     14027     14026     14028     14029     14030
     14029     14031     14032     14033     14032     14034     14035     14036
     14035     14037     14038     14039     14038     14040     14041     14042
     14041     14043     14044     14045     14044     14046     14047     14048
     14047     14049     14050     14051     14050     14052     14053     14054
     14053     14055     14056     14057     14056     14058     14059     14060
     14059     14061     14062     14063     14062     14064     14065     14066
     14065     14067     14068     14069     14068     14070     14071     14072
     14071     14073     14074     14075     14074     14076     14077     14078
     14077     14079     14080     14081     14080     14082     14083     14084
     14083     14085     14086     14087     14086     14088     14089     14090
     14089     14091     14092     14093     14092     14094     14095     14096
     14095     14097     14098     14099     14098     14100     14101     14102
     14101     14103     14104     14105     14104     14106     14107     14108
     14107     14109     14110     14111     14110     14112     14113     14114
     14113     14115     14116     14117     14116     14118     14119     14120
     14119     14121     14122     14123     14122     14124     14125     14126
     14125     14127     14128     14129     14128     14130     14131     14132
     14131     14133     14134     14135     14134     14136     14137     14138
     14137     14139     14140     14141     14140     14142     14143     14144
     14143     14145     14146     14147     14146     14148     14149     14150
     14149     14151     14152     14153     14152     14154     14155     14156
     14155     14157     14158     14159     14158     14160     14161     14162
     14161     14163     14164     14165     14164     14166     14167     14168
     14167     14169     14170     14171     14170     14172     14173     14174
     14173     14175     14176     14177     14176     14178     14179     14180
     14179     14181     14182     14183     14182     14184     14185     14186
     14185     14187     14188     14189     14188     14190     14191     14192
     14191     14193     14194     14195     14194     14196     14197     14198
     14197     14199     14200     14201     14200     14202     14203     14204
     14203     14205     14206     14207     14206     14208     14209     14210
     14209     14211     14212     14213     14212     14214     14215     14216
     14215     14217     14218     14219     14218     14220     14221     14222
     14221     14223     14224     14225     14224     14226     14227     14228
     14227     14229     14230     14231     14230     14232     14233     14234
     14233     14235     14236     14237     14236     14238     14239     14240
     14239     14241     14242     14243     14242     14244     14245     14246
     14245     14247     14248     14249     14248     14250     14251     14252
     14251     14253     14254     14255     14254     14256     14257     14258
     14257     14259     14260     14261     14260     14262     14263     14264
     14263     14265     14266     14267     14266     14268     14269     14270
     14269     14271     14272     14273     14272     14274     14275     14276
     14275     14277     14278     14279     14278     14280     14281     14282
     14281     14283     14284     14285     14284     14286     14287     14288
     14287     14289     14290     14291     14290     14292     14293     14294
     14293     14295     14296     14297     14296     14298     14299     14300
     14299     14301     14302     14303     14302     14304     14305     14306
     14305     14307     14308     14309     14308     14310     14311     14312
     14311     14313     14314     14315     14314     14316     14317     14318
     14317     14319     14320     14321     14320     14322     14323     14324
     14323     14325     14326     14327     14326     14328     14329     14330
     14329     14331     14332     14333     14332     14334     14335     14336
     14335     14337     14338     14339     14338     14340     14341     14342
     14341     14343     14344     14345     14344     14346     14347     14348
     14347     14349     14350     14351     14350     14352     14353     14354
     14353     14355     14356     14357     14356     14358     14359     14360
     14359     14361     14362     14363     14362     14364     14365     14366
     14365     14367     14368     14369     14368     14370     14371     14372
     14371     14373     14374     14375     14374     14376     14377     14378
     14377     14379     14380     14381     14380     14382     14383     14384
     14383     14385     14386     14387     14386     14388     14389     14390
     14389     14391     14392     14393     14392     14394     14395     14396
     14395     14397     14398     14399     14398     14400     14401     14402
     14401     14403     14404     14405     14404     14406     14407     14408
     14407     14409     14410     14411     14410     14412     14413     14414
     14413     14415     14416     14417     14416     14418     14419     14420
     14419     14421     14422     14423     14422     14424     14425     14426
     14425     14427     14428     14429     14428     14430     14431     14432
     14431     14433     14434     14435     14434     14436     14437     14438
     14437     14439     14440     14441     14440     14442     14443     14444
     14443     14445     14446     14447     14446     14448     14449     14450
     14449     14451     14452     14453     14452     14454     14455     14456
     14455     14457     14458     14459     14458     14460     14461     14462
     14461     14463     14464     14465     14464     14466     14467     14468
     14467     14469     14470     14471     14470     14472     14473     14474
     14473     14475     14476     14477     14476     14478     14479     14480
     14479     14481     14482     14483     14482     14484     14485     14486
     14485     14487     14488     14489     14488     14490     14491     14492
     14491     14493     14494     14495     14494     14496     14497     14498
     14497     14499     14500     14501     14500     14502     14503     14504
     14503     14505     14506     14507     14506     14508     14509     14510
     14509     14511     14512     14513     14512     14514     14515     14516
     14515     14517     14518     14519     14518     14520     14521     14522
     14521     14523     14524     14525     14524     14526     14527     14528
     14527     14529     14530     14531     14530     14532     14533     14534
     14533     14535     14536     14537     14536     14538     14539     14540
     14539     14541     14542     14543     14542     14544     14545     14546
     14545     14547     14548     14549     14548     14550     14551     14552
     14551     14553     14554     14555     14554     14556     14557     14558
     14557     14559     14560     14561     14560     14562     14563     14564
     14563     14565     14566     14567     14566     14568     14569     14570
     14569     14571     14572     14573     14572     14574     14575     14576
     14575     14577     14578     14579     14578     14580     14581     14582
     14581     14583     14584     14585     14584     14586     14587     14588
     14587     14589     14590     14591     14590     14592     14593     14594
     14593     14595     14596     14597     14596     14598     14599     14600
     14599     14601     14602     14603     14602     14604     14605     14606
     14605     14607     14608     14609     14608     14610     14611     14612
     14611     14613     14614     14615     14614     14616     14617     14618
     14617     14619     14620     14621     14620     14622     14623     14624
     14623     14625     14626     14627     14626     14628     14629     14630
     14629     14631     14632     14633     14632     14634     14635     14636
     14635     14637     14638     14639     14638     14640     14641     14642
     14641     14643     14644     14645     14644     14646     14647     14648
     14647     14649     14650     14651     14650     14652     14653     14654
     14653     14655     14656     14657     14656     14658     14659     14660
     14659     14661     14662     14663     14662     14664     14665     14666
     14665     14667     14668     14669     14668     14670     14671     14672
     14671     14673     14674     14675     14674     14676     14677     14678
     14677     14679     14680     14681     14680     14682     14683     14684
     14683     14685     14686     14687     14686     14688     14689     14690
     14689     14691     14692     14693     14692     14694     14695     14696
     14695     14697     14698     14699     14698     14700     14701     14702
     14701     14703     14704     14705     14704     14706     14707     14708
     14707     14709     14710     14711     14710     14712     14713     14714
     14713     14715     14716     14717     14716     14718     14719     14720
     14719     14721     14722     14723     14722     14724     14725     14726
     14725     14727     14728     14729     14728     14730     14731     14732
     14731     14733     14734     14735     14734     14736     14737     14738
     14737     14739     14740     14741     14740     14742     14743     14744
     14743     14745     14746     14747     14746     14748     14749     14750
     14749     14751     14752     14753     14752     14754     14755     14756
     14755     14757     14758     14759     14758     14760     14761     14762
     14761     14763     14764     14765     14764     14766     14767     14768
     14767     14769     14770     14771     14770     14772     14773     14774
     14773     14775     14776     14777     14776     14778     14779     14780
     14779     14781     14782     14783     14782     14784     14785     14786
     14785     14787     14788     14789     14788     14790     14791     14792
     14791     14793     14794     14795     14794     14796     14797     14798
     14797     14799     14800     14801     14800     14802     14803     14804
     14803     14805     14806     14807     14806     14808     14809     14810
     14809     14811     14812     14813     14812     14814     14815     14816
     14815     14817     14818     14819     14818     14820     14821     14822
     14821     14823     14824     14825     14824     14826     14827     14828
     14827     14829     14830     14831     14830     14832     14833     14834
     14833     14835     14836     14837     14836     14838     14839     14840
     14839     14841     14842     14843     14842     14844     14845     14846
     14845     14847     14848     14849     14848     14850     14851     14852
     14851     14853     14854     14855     14854     14856     14857     14858
     14857     14859     14860     14861     14860     14862     14863     14864
     14863     14865     14866     14867     14866     14868     14869     14870
     14869     14871     14872     14873     14872     14874     14875     14876
     14875     14877     14878     14879     14878     14880     14881     14882
     14881     14883     14884     14885     14884     14886     14887     14888
     14887     14889     14890     14891     14890     14892     14893     14894
     14893     14895     14896     14897     14896     14898     14899     14900
     14899     14901     14902     14903     14902     14904     14905     14906
     14905     14907     14908     14909     14908     14910     14911     14912
     14911     14913     14914     14915     14914     14916     14917     14918
     14917     14919     14920     14921     14920     14922     14923     14924
     14923     14925     14926     14927     14926     14928     14929     14930
     14929     14931     14932     14933     14932     14934     14935     14936
     14935     14937     14938     14939     14938     14940     14941     14942
     14941     14943     14944     14945     14944     14946     14947     14948
     14947     14949     14950     14951     14950     14952     14953     14954
     14953     14955     14956     14957     14956     14958     14959     14960
     14959     14961     14962     14963     14962     14964     14965     14966
     14965     14967     14968     14969     14968     14970     14971     14972
     14971     14973     14974     14975     14974     14976     14977     14978
     14977     14979     14980     14981     14980     14982     14983     14984
     14983     14985     14986     14987     14986     14988     14989     14990
     14989     14991     14992     14993     14992     14994     14995     14996
     14995     14997     14998     14999     14998     15000     15001     15002
     15001     15003     15004     15005     15004     15006     15007     15008
     15007     15009     15010     15011     15010     15012     15013     15014
     15013     15015     15016     15017     15016     15018     15019     15020
     15019     15021     15022     15023     15022     15024     15025     15026
     15025     15027     15028     15029     15028     15030     15031     15032
     15031     15033     15034     15035     15034     15036     15037     15038
     15037     15039     15040     15041     15040     15042     15043     15044
     15043     15045     15046     15047     15046     15048     15049     15050
     15049     15051     15052     15053     15052     15054     15055     15056
     15055     15057     15058     15059     15058     15060     15061     15062
     15061     15063     15064     15065     15064     15066     15067     15068
     15067     15069     15070     15071     15070     15072     15073     15074
     15073     15075     15076     15077     15076     15078     15079     15080
     15079     15081     15082     15083     15082     15084     15085     15086
     15085     15087     15088     15089     15088     15090     15091     15092
     15091     15093     15094     15095     15094     15096     15097     15098
     15097     15099     15100     15101     15100     15102     15103     15104
     15103     15105     15106     15107     15106     15108     15109     15110
     15109     15111     15112     15113     15112     15114     15115     15116
     15115     15117     15118     15119     15118     15120     15121     15122
     15121     15123     15124     15125     15124     15126     15127     15128
     15127     15129     15130     15131     15130     15132     15133     15134
     15133     15135     15136     15137     15136     15138     15139     15140
     15139     15141     15142     15143     15142     15144     15145     15146
     15145     15147     15148     15149     15148     15150     15151     15152
     15151     15153     15154     15155     15154     15156     15157     15158
     15157     15159     15160     15161     15160     15162     15163     15164
     15163     15165     15166     15167     15166     15168     15169     15170
     15169     15171     15172     15173     15172     15174     15175     15176
     15175     15177     15178     15179     15178     15180     15181     15182
     15181     15183     15184     15185     15184     15186     15187     15188
     15187     15189     15190     15191     15190     15192     15193     15194
     15193     15195     15196     15197     15196     15198     15199     15200
     15199     15201     15202     15203     15202     15204     15205     15206
     15205     15207     15208     15209     15208     15210     15211     15212
     15211     15213     15214     15215     15214     15216     15217     15218
     15217     15219     15220     15221     15220     15222     15223     15224
     15223     15225     15226     15227     15226     15228     15229     15230
     15229     15231     15232     15233     15232     15234     15235     15236
     15235     15237     15238     15239     15238     15240     15241     15242
     15241     15243     15244     15245     15244     15246     15247     15248
     15247     15249     15250     15251     15250     15252     15253     15254
     15253     15255     15256     15257     15256     15258     15259     15260
     15259     15261     15262     15263     15262     15264     15265     15266
     15265     15267     15268     15269     15268     15270     15271     15272
     15271     15273     15274     15275     15274     15276     15277     15278
     15277     15279     15280     15281     15280     15282     15283     15284
     15283     15285     15286     15287     15286     15288     15289     15290
     15289     15291     15292     15293     15292     15294     15295     15296
     15295     15297     15298     15299     15298     15300     15301     15302
     15301     15303     15304     15305     15304     15306     15307     15308
     15307     15309     15310     15311     15310     15312     15313     15314
     15313     15315     15316     15317     15316     15318     15319     15320
     15319     15321     15322     15323     15322     15324     15325     15326
     15325     15327     15328     15329     15328     15330     15331     15332
     15331     15333     15334     15335     15334     15336     15337     15338
     15337     15339     15340     15341     15340     15342     15343     15344
     15343     15345     15346     15347     15346     15348     15349     15350
     15349     15351     15352     15353     15352     15354     15355     15356
     15355     15357     15358     15359     15358     15360     15361     15362
     15361     15363     15364     15365     15364     15366     15367     15368
     15367     15369     15370     15371     15370     15372     15373     15374
     15373     15375     15376     15377     15376     15378     15379     15380
     15379     15381     15382     15383     15382     15384     15385     15386
     15385     15387     15388     15389     15388     15390     15391     15392
     15391     15393     15394     15395     15394     15396     15397     15398
     15397     15399     15400     15401     15400     15402     15403     15404
     15403     15405     15406     15407     15406     15408     15409     15410
     15409     15411     15412     15413     15412     15414     15415     15416
     15415     15417     15418     15419     15418     15420     15421     15422
     15421     15423     15424     15425     15424     15426     15427     15428
     15427     15429     15430     15431     15430     15432     15433     15434
     15433     15435     15436     15437     15436     15438     15439     15440
     15439     15441     15442     15443     15442     15444     15445     15446
     15445     15447     15448     15449     15448     15450     15451     15452
     15451     15453     15454     15455     15454     15456     15457     15458
     15457     15459     15460     15461     15460     15462     15463     15464
     15463     15465     15466     15467     15466     15468     15469     15470
     15469     15471     15472     15473     15472     15474     15475     15476
     15475     15477     15478     15479     15478     15480     15481     15482
     15481     15483     15484     15485     15484     15486     15487     15488
     15487     15489     15490     15491     15490     15492     15493     15494
     15493     15495     15496     15497     15496     15498     15499     15500
     15499     15501     15502     15503     15502     15504     15505     15506
     15505     15507     15508     15509     15508     15510     15511     15512
     15511     15513     15514     15515     15514     15516     15517     15518
     15517     15519     15520     15521     15520     15522     15523     15524
     15523     15525     15526     15527     15526     15528     15529     15530
     15529     15531     15532     15533     15532     15534     15535     15536
     15535     15537     15538     15539     15538     15540     15541     15542
     15541     15543     15544     15545     15544     15546     15547     15548
     15547     15549     15550     15551     15550     15552     15553     15554
     15553     15555     15556     15557     15556     15558     15559     15560
     15559     15561     15562     15563     15562     15564     15565     15566
     15565     15567     15568     15569     15568     15570     15571     15572
     15571     15573     15574     15575     15574     15576     15577     15578
     15577     15579     15580     15581     15580     15582     15583     15584
     15583     15585     15586     15587     15586     15588     15589     15590
     15589     15591     15592     15593     15592     15594     15595     15596
     15595     15597     15598     15599     15598     15600     15601     15602
     15601     15603     15604     15605     15604     15606     15607     15608
     15607     15609     15610     15611     15610     15612     15613     15614
     15613     15615     15616     15617     15616     15618     15619     15620
     15619     15621     15622     15623     15622     15624     15625     15626
     15625     15627     15628     15629     15628     15630     15631     15632
     15631     15633     15634     15635     15634     15636     15637     15638
     15637     15639     15640     15641     15640     15642     15643     15644
     15643     15645     15646     15647     15646     15648     15649     15650
     15649     15651     15652     15653     15652     15654     15655     15656
     15655     15657     15658     15659     15658     15660     15661     15662
     15661     15663     15664     15665     15664     15666     15667     15668
     15667     15669     15670     15671     15670     15672     15673     15674
     15673     15675     15676     15677     15676     15678     15679     15680
     15679     15681     15682     15683     15682     15684     15685     15686
     15685     15687     15688     15689     15688     15690     15691     15692
     15691     15693     15694     15695     15694     15696     15697     15698
     15697     15699     15700     15701     15700     15702     15703     15704
     15703     15705     15706     15707     15706     15708     15709     15710
     15709     15711     15712     15713     15712     15714     15715     15716
     15715     15717     15718     15719     15718     15720     15721     15722
     15721     15723     15724     15725     15724     15726     15727     15728
     15727     15729     15730     15731     15730     15732     15733     15734
     15733     15735     15736     15737     15736     15738     15739     15740
     15739     15741     15742     15743     15742     15744     15745     15746
     15745     15747     15748     15749     15748     15750     15751     15752
     15751     15753     15754     15755     15754     15756     15757     15758
     15757     15759     15760     15761     15760     15762     15763     15764
     15763     15765     15766     15767     15766     15768     15769     15770
     15769     15771     15772     15773     15772     15774     15775     15776
     15775     15777     15778     15779     15778     15780     15781     15782
     15781     15783     15784     15785     15784     15786     15787     15788
     15787     15789     15790     15791     15790     15792     15793     15794
     15793     15795     15796     15797     15796     15798     15799     15800
     15799     15801     15802     15803     15802     15804     15805     15806
     15805     15807     15808     15809     15808     15810     15811     15812
     15811     15813     15814     15815     15814     15816     15817     15818
     15817     15819     15820     15821     15820     15822     15823     15824
     15823     15825     15826     15827     15826     15828     15829     15830
     15829     15831     15832     15833     15832     15834     15835     15836
     15835     15837     15838     15839     15838     15840     15841     15842
     15841     15843     15844     15845     15844     15846     15847     15848
     15847     15849     15850     15851     15850     15852     15853     15854
     15853     15855     15856     15857     15856     15858     15859     15860
     15859     15861     15862     15863     15862     15864     15865     15866
     15865     15867     15868     15869     15868     15870     15871     15872
     15871     15873     15874     15875     15874     15876     15877     15878
     15877     15879     15880     15881     15880     15882     15883     15884
     15883     15885     15886     15887     15886     15888     15889     15890
     15889     15891     15892     15893     15892     15894     15895     15896
     15895     15897     15898     15899     15898     15900     15901     15902
     15901     15903     15904     15905     15904     15906     15907     15908
     15907     15909     15910     15911     15910     15912     15913     15914
     15913     15915     15916     15917     15916     15918     15919     15920
     15919     15921     15922     15923     15922     15924     15925     15926
     15925     15927     15928     15929     15928     15930     15931     15932
     15931     15933     15934     15935     15934     15936     15937     15938
     15937     15939     15940     15941     15940     15942     15943     15944
     15943     15945     15946     15947     15946     15948     15949     15950
     15949     15951     15952     15953     15952     15954     15955     15956
     15955     15957     15958     15959     15958     15960     15961     15962
     15961     15963     15964     15965     15964     15966     15967     15968
     15967     15969     15970     15971     15970     15972     15973     15974
     15973     15975     15976     15977     15976     15978     15979     15980
     15979     15981     15982     15983     15982     15984     15985     15986
     15985     15987     15988     15989     15988     15990     15991     15992
     15991     15993     15994     15995     15994     15996     15997     15998
     15997     15999     16000     16001     16000     16002     16003     16004
     16003     16005     16006     16007     16006     16008     16009     16010
     16009     16011     16012     16013     16012     16014     16015     16016
     16015     16017     16018     16019     16018     16020     16021     16022
     16021     16023     16024     16025     16024     16026     16027     16028
     16027     16029     16030     16031     16030     16032     16033     16034
     16033     16035     16036     16037     16036     16038     16039     16040
     16039     16041     16042     16043     16042     16044     16045     16046
     16045     16047     16048     16049     16048     16050     16051     16052
     16051     16053     16054     16055     16054     16056     16057     16058
     16057     16059     16060     16061     16060     16062     16063     16064
     16063     16065     16066     16067     16066     16068     16069     16070
     16069     16071     16072     16073     16072     16074     16075     16076
     16075     16077     16078     16079     16078     16080     16081     16082
     16081     16083     16084     16085     16084     16086     16087     16088
     16087     16089     16090     16091     16090     16092     16093     16094
     16093     16095     16096     16097     16096     16098     16099     16100
     16099     16101     16102     16103     16102     16104     16105     16106
     16105     16107     16108     16109     16108     16110     16111     16112
     16111     16113     16114     16115     16114     16116     16117     16118
     16117     16119     16120     16121     16120     16122     16123     16124
     16123     16125     16126     16127     16126     16128     16129     16130
     16129     16131     16132     16133     16132     16134     16135     16136
     16135     16137     16138     16139     16138     16140     16141     16142
     16141     16143     16144     16145     16144     16146     16147     16148
     16147     16149     16150     16151     16150     16152     16153     16154
     16153     16155     16156     16157     16156     16158     16159     16160
     16159     16161     16162     16163     16162     16164     16165     16166
     16165     16167     16168     16169     16168     16170     16171     16172
     16171     16173     16174     16175     16174     16176     16177     16178
     16177     16179     16180     16181     16180     16182     16183     16184
     16183     16185     16186     16187     16186     16188     16189     16190
     16189     16191     16192     16193     16192     16194     16195     16196
     16195     16197     16198     16199     16198     16200     16201     16202
     16201     16203     16204     16205     16204     16206     16207     16208
     16207     16209     16210     16211     16210     16212     16213     16214
     16213     16215     16216     16217     16216     16218     16219     16220
     16219     16221     16222     16223     16222     16224     16225     16226
     16225     16227     16228     16229     16228     16230     16231     16232
     16231     16233     16234     16235     16234     16236     16237     16238
     16237     16239     16240     16241     16240     16242     16243     16244
     16243     16245     16246     16247     16246     16248     16249     16250
     16249     16251     16252     16253     16252     16254     16255     16256
     16255     16257     16258     16259     16258     16260     16261     16262
     16261     16263     16264     16265     16264     16266     16267     16268
     16267     16269     16270     16271     16270     16272     16273     16274
     16273     16275     16276     16277     16276     16278     16279     16280
     16279     16281     16282     16283     16282     16284     16285     16286
     16285     16287     16288     16289     16288     16290     16291     16292
     16291     16293     16294     16295     16294     16296     16297     16298
     16297     16299     16300     16301     16300     16302     16303     16304
     16303     16305     16306     16307     16306     16308     16309     16310
     16309     16311     16312     16313     16312     16314     16315     16316
     16315     16317     16318     16319     16318     16320     16321     16322
     16321     16323     16324     16325     16324     16326     16327     16328
     16327     16329     16330     16331     16330     16332     16333     16334
     16333     16335     16336     16337     16336     16338     16339     16340
     16339     16341     16342     16343     16342     16344     16345     16346
     16345     16347     16348     16349     16348     16350     16351     16352
     16351     16353     16354     16355     16354     16356     16357     16358
     16357     16359     16360     16361     16360     16362     16363     16364
     16363     16365     16366     16367     16366     16368     16369     16370
     16369     16371     16372     16373     16372     16374     16375     16376
     16375     16377     16378     16379     16378     16380     16381     16382
     16381     16383     16384     16385     16384     16386     16387     16388
     16387     16389     16390     16391     16390     16392     16393     16394
     16393     16395     16396     16397     16396     16398     16399     16400
     16399     16401     16402     16403     16402     16404     16405     16406
     16405     16407     16408     16409     16408     16410     16411     16412
     16411     16413     16414     16415     16414     16416     16417     16418
     16417     16419     16420     16421     16420     16422     16423     16424
     16423     16425     16426     16427     16426     16428     16429     16430
     16429     16431     16432     16433     16432     16434     16435     16436
     16435     16437     16438     16439     16438     16440     16441     16442
     16441     16443     16444     16445     16444     16446     16447     16448
     16447     16449     16450     16451     16450     16452     16453     16454
     16453     16455     16456     16457     16456     16458     16459     16460
     16459     16461     16462     16463     16462     16464     16465     16466
     16465     16467     16468     16469     16468     16470     16471     16472
     16471     16473     16474     16475     16474     16476     16477     16478
     16477     16479     16480     16481     16480     16482     16483     16484
     16483     16485     16486     16487     16486     16488     16489     16490
     16489     16491     16492     16493     16492     16494     16495     16496
     16495     16497     16498     16499     16498     16500     16501     16502
     16501     16503     16504     16505     16504     16506     16507     16508
     16507     16509     16510     16511     16510     16512     16513     16514
     16513     16515     16516     16517     16516     16518     16519     16520
     16519     16521     16522     16523     16522     16524     16525     16526
     16525     16527     16528     16529     16528     16530     16531     16532
     16531     16533     16534     16535     16534     16536     16537     16538
     16537     16539     16540     16541     16540     16542     16543     16544
     16543     16545     16546     16547     16546     16548     16549     16550
     16549     16551     16552     16553     16552     16554     16555     16556
     16555     16557     16558     16559     16558     16560     16561     16562
     16561     16563     16564     16565     16564     16566     16567     16568
     16567     16569     16570     16571     16570     16572     16573     16574
     16573     16575     16576     16577     16576     16578     16579     16580
     16579     16581     16582     16583     16582     16584     16585     16586
     16585     16587     16588     16589     16588     16590     16591     16592
     16591     16593     16594     16595     16594     16596     16597     16598
     16597     16599     16600     16601     16600     16602     16603     16604
     16603     16605     16606     16607     16606     16608     16609     16610
     16609     16611     16612     16613     16612     16614     16615     16616
     16615     16617     16618     16619     16618     16620     16621     16622
     16621     16623     16624     16625     16624     16626     16627     16628
     16627     16629     16630     16631     16630     16632     16633     16634
     16633     16635     16636     16637     16636     16638     16639     16640
     16639     16641     16642     16643     16642     16644     16645     16646
     16645     16647     16648     16649     16648     16650     16651     16652
     16651     16653     16654     16655     16654     16656     16657     16658
     16657     16659     16660     16661     16660     16662     16663     16664
     16663     16665     16666     16667     16666     16668     16669     16670
     16669     16671     16672     16673     16672     16674     16675     16676
     16675     16677     16678     16679     16678     16680     16681     16682
     16681     16683     16684     16685     16684     16686     16687     16688
     16687     16689     16690     16691     16690     16692     16693     16694
     16693     16695     16696     16697     16696     16698     16699     16700
     16699     16701     16702     16703     16702     16704     16705     16706
     16705     16707     16708     16709     16708     16710     16711     16712
     16711     16713     16714     16715     16714     16716     16717     16718
     16717     16719     16720     16721     16720     16722     16723     16724
     16723     16725     16726     16727     16726     16728     16729     16730
     16729     16731     16732     16733     16732     16734     16735     16736
     16735     16737     16738     16739     16738     16740     16741     16742
     16741     16743     16744     16745     16744     16746     16747     16748
     16747     16749     16750     16751     16750     16752     16753     16754
     16753     16755     16756     16757     16756     16758     16759     16760
     16759     16761     16762     16763     16762     16764     16765     16766
     16765     16767     16768     16769     16768     16770     16771     16772
     16771     16773     16774     16775     16774     16776     16777     16778
     16777     16779     16780     16781     16780     16782     16783     16784
     16783     16785     16786     16787     16786     16788     16789     16790
     16789     16791     16792     16793     16792     16794     16795     16796
     16795     16797     16798     16799     16798     16800     16801     16802
     16801     16803     16804     16805     16804     16806     16807     16808
     16807     16809     16810     16811     16810     16812     16813     16814
     16813     16815     16816     16817     16816     16818     16819     16820
     16819     16821     16822     16823     16822     16824     16825     16826
     16825     16827     16828     16829     16828     16830     16831     16832
     16831     16833     16834     16835     16834     16836     16837     16838
     16837     16839     16840     16841     16840     16842     16843     16844
     16843     16845     16846     16847     16846     16848     16849     16850
     16849     16851     16852     16853     16852     16854     16855     16856
     16855     16857     16858     16859     16858     16860     16861     16862
     16861     16863     16864     16865     16864     16866     16867     16868
     16867     16869     16870     16871     16870     16872     16873     16874
     16873     16875     16876     16877     16876     16878     16879     16880
     16879     16881     16882     16883     16882     16884     16885     16886
     16885     16887     16888     16889     16888     16890     16891     16892
     16891     16893     16894     16895     16894     16896     16897     16898
     16897     16899     16900     16901     16900     16902     16903     16904
     16903     16905     16906     16907     16906     16908     16909     16910
     16909     16911     16912     16913     16912     16914     16915     16916
     16915     16917     16918     16919     16918     16920     16921     16922
     16921     16923     16924     16925     16924     16926     16927     16928
     16927     16929     16930     16931     16930     16932     16933     16934
     16933     16935     16936     16937     16936     16938     16939     16940
     16939     16941     16942     16943     16942     16944     16945     16946
     16945     16947     16948     16949     16948     16950     16951     16952
     16951     16953     16954     16955     16954     16956     16957     16958
     16957     16959     16960     16961     16960     16962     16963     16964
     16963     16965     16966     16967     16966     16968     16969     16970
     16969     16971     16972     16973     16972     16974     16975     16976
     16975     16977     16978     16979     16978     16980     16981     16982
     16981     16983     16984     16985     16984     16986     16987     16988
     16987     16989     16990     16991     16990     16992     16993     16994
     16993     16995     16996     16997     16996     16998     16999     17000
     16999     17001     17002     17003     17002     17004     17005     17006
     17005     17007     17008     17009     17008     17010     17011     17012
     17011     17013     17014     17015     17014     17016     17017     17018
     17017     17019     17020     17021     17020     17022     17023     17024
     17023     17025     17026     17027     17026     17028     17029     17030
     17029     17031     17032     17033     17032     17034     17035     17036
     17035     17037     17038     17039     17038     17040     17041     17042
     17041     17043     17044     17045     17044     17046     17047     17048
     17047     17049     17050     17051     17050     17052     17053     17054
     17053     17055     17056     17057     17056     17058     17059     17060
     17059     17061     17062     17063     17062     17064     17065     17066
     17065     17067     17068     17069     17068     17070     17071     17072
     17071     17073     17074     17075     17074     17076     17077     17078
     17077     17079     17080     17081     17080     17082     17083     17084
     17083     17085     17086     17087     17086     17088     17089     17090
     17089     17091     17092     17093     17092     17094     17095     17096
     17095     17097     17098     17099     17098     17100     17101     17102
     17101     17103     17104     17105     17104     17106     17107     17108
     17107     17109     17110     17111     17110     17112     17113     17114
     17113     17115     17116     17117     17116     17118     17119     17120
     17119     17121     17122     17123     17122     17124     17125     17126
     17125     17127     17128     17129     17128     17130     17131     17132
     17131     17133     17134     17135     17134     17136     17137     17138
     17137     17139     17140     17141     17140     17142     17143     17144
     17143     17145     17146     17147     17146     17148     17149     17150
     17149     17151     17152     17153     17152     17154     17155     17156
     17155     17157     17158     17159     17158     17160     17161     17162
     17161     17163     17164     17165     17164     17166     17167     17168
     17167     17169     17170     17171     17170     17172     17173     17174
     17173     17175     17176     17177     17176     17178     17179     17180
     17179     17181     17182     17183     17182     17184     17185     17186
     17185     17187     17188     17189     17188     17190     17191     17192
     17191     17193     17194     17195     17194     17196     17197     17198
     17197     17199     17200     17201     17200     17202     17203     17204
     17203     17205     17206     17207     17206     17208     17209     17210
     17209     17211     17212     17213     17212     17214     17215     17216
     17215     17217     17218     17219     17218     17220     17221     17222
     17221     17223     17224     17225     17224     17226     17227     17228
     17227     17229     17230     17231     17230     17232     17233     17234
     17233     17235     17236     17237     17236     17238     17239     17240
     17239     17241     17242     17243     17242     17244     17245     17246
     17245     17247     17248     17249     17248     17250     17251     17252
     17251     17253     17254     17255     17254     17256     17257     17258
     17257     17259     17260     17261     17260     17262     17263     17264
     17263     17265     17266     17267     17266     17268     17269     17270
     17269     17271     17272     17273     17272     17274     17275     17276
     17275     17277     17278     17279     17278     17280     17281     17282
     17281     17283     17284     17285     17284     17286     17287     17288
     17287     17289     17290     17291     17290     17292     17293     17294
     17293     17295     17296     17297     17296     17298     17299     17300
     17299     17301     17302     17303     17302     17304     17305     17306
     17305     17307     17308     17309     17308     17310     17311     17312
     17311     17313     17314     17315     17314     17316     17317     17318
     17317     17319     17320     17321     17320     17322     17323     17324
     17323     17325     17326     17327     17326     17328     17329     17330
     17329     17331     17332     17333     17332     17334     17335     17336
     17335     17337     17338     17339     17338     17340     17341     17342
     17341     17343     17344     17345     17344     17346     17347     17348
     17347     17349     17350     17351     17350     17352     17353     17354
     17353     17355     17356     17357     17356     17358     17359     17360
     17359     17361     17362     17363     17362     17364     17365     17366
     17365     17367     17368     17369     17368     17370     17371     17372
     17371     17373     17374     17375     17374     17376     17377     17378
     17377     17379     17380     17381     17380     17382     17383     17384
     17383     17385     17386     17387     17386     17388     17389     17390
     17389     17391     17392     17393     17392     17394     17395     17396
     17395     17397     17398     17399     17398     17400     17401     17402
     17401     17403     17404     17405     17404     17406     17407     17408
     17407     17409     17410     17411     17410     17412     17413     17414
     17413     17415     17416     17417     17416     17418     17419     17420
     17419     17421     17422     17423     17422     17424     17425     17426
     17425     17427     17428     17429     17428     17430     17431     17432
     17431     17433     17434     17435     17434     17436     17437     17438
     17437     17439     17440     17441     17440     17442     17443     17444
     17443     17445     17446     17447     17446     17448     17449     17450
     17449     17451     17452     17453     17452     17454     17455     17456
     17455     17457     17458     17459     17458     17460     17461     17462
     17461     17463     17464     17465     17464     17466     17467     17468
     17467     17469     17470     17471     17470     17472     17473     17474
     17473     17475     17476     17477     17476     17478     17479     17480
     17479     17481     17482     17483     17482     17484     17485     17486
     17485     17487     17488     17489     17488     17490     17491     17492
     17491     17493     17494     17495     17494     17496     17497     17498
     17497     17499     17500     17501     17500     17502     17503     17504
     17503     17505     17506     17507     17506     17508     17509     17510
     17509     17511     17512     17513     17512     17514     17515     17516
     17515     17517     17518     17519     17518     17520     17521     17522
     17521     17523     17524     17525     17524     17526     17527     17528
     17527     17529     17530     17531     17530     17532     17533     17534
     17533     17535     17536     17537     17536     17538     17539     17540
     17539     17541     17542     17543     17542     17544     17545     17546
     17545     17547     17548     17549     17548     17550     17551     17552
     17551     17553     17554     17555     17554     17556     17557     17558
     17557     17559     17560     17561     17560     17562     17563     17564
     17563     17565     17566     17567     17566     17568     17569     17570
     17569     17571     17572     17573     17572     17574     17575     17576
     17575     17577     17578     17579     17578     17580     17581     17582
     17581     17583     17584     17585     17584     17586     17587     17588
     17587     17589     17590     17591     17590     17592     17593     17594
     17593     17595     17596     17597     17596     17598     17599     17600
     17599     17601     17602     17603     17602     17604     17605     17606
     17605     17607     17608     17609     17608     17610     17611     17612
     17611     17613     17614     17615     17614     17616     17617     17618
     17617     17619     17620     17621     17620     17622     17623     17624
     17623     17625     17626     17627     17626     17628     17629     17630
     17629     17631     17632     17633     17632     17634     17635     17636
     17635     17637     17638     17639     17638     17640     17641     17642
     17641     17643     17644     17645     17644     17646     17647     17648
     17647     17649     17650     17651     17650     17652     17653     17654
     17653     17655     17656     17657     17656     17658     17659     17660
     17659     17661     17662     17663     17662     17664     17665     17666
     17665     17667     17668     17669     17668     17670     17671     17672
     17671     17673     17674     17675     17674     17676     17677     17678
     17677     17679     17680     17681     17680     17682     17683     17684
     17683     17685     17686     17687     17686     17688     17689     17690
     17689     17691     17692     17693     17692     17694     17695     17696
     17695     17697     17698     17699     17698     17700     17701     17702
     17701     17703     17704     17705     17704     17706     17707     17708
     17707     17709     17710     17711     17710     17712     17713     17714
     17713     17715     17716     17717     17716     17718     17719     17720
     17719     17721     17722     17723     17722     17724     17725     17726
     17725     17727     17728     17729     17728     17730     17731     17732
     17731     17733     17734     17735     17734     17736     17737     17738
     17737     17739     17740     17741     17740     17742     17743     17744
     17743     17745     17746     17747     17746     17748     17749     17750
     17749     17751     17752     17753     17752     17754     17755     17756
     17755     17757     17758     17759     17758     17760     17761     17762
     17761     17763     17764     17765     17764     17766     17767     17768
     17767     17769     17770     17771     17770     17772     17773     17774
     17773     17775     17776     17777     17776     17778     17779     17780
     17779     17781     17782     17783     17782     17784     17785     17786
     17785     17787     17788     17789     17788     17790     17791     17792
     17791     17793     17794     17795     17794     17796     17797     17798
     17797     17799     17800     17801     17800     17802     17803     17804
     17803     17805     17806     17807     17806     17808     17809     17810
     17809     17811     17812     17813     17812     17814     17815     17816
     17815     17817     17818     17819     17818     17820     17821     17822
     17821     17823     17824     17825     17824     17826     17827     17828
     17827     17829     17830     17831     17830     17832     17833     17834
     17833     17835     17836     17837     17836     17838     17839     17840
     17839     17841     17842     17843     17842     17844     17845     17846
     17845     17847     17848     17849     17848     17850     17851     17852
     17851     17853     17854     17855     17854     17856     17857     17858
     17857     17859     17860     17861     17860     17862     17863     17864
     17863     17865     17866     17867     17866     17868     17869     17870
     17869     17871     17872     17873     17872     17874     17875     17876
     17875     17877     17878     17879     17878     17880     17881     17882
     17881     17883     17884     17885     17884     17886     17887     17888
     17887     17889     17890     17891     17890     17892     17893     17894
     17893     17895     17896     17897     17896     17898     17899     17900
     17899     17901     17902     17903     17902     17904     17905     17906
     17905     17907     17908     17909     17908     17910     17911     17912
     17911     17913     17914     17915     17914     17916     17917     17918
     17917     17919     17920     17921     17920     17922     17923     17924
     17923     17925     17926     17927     17926     17928     17929     17930
     17929     17931     17932     17933     17932     17934     17935     17936
     17935     17937     17938     17939     17938     17940     17941     17942
     17941     17943     17944     17945     17944     17946     17947     17948
     17947     17949     17950     17951     17950     17952     17953     17954
     17953     17955     17956     17957     17956     17958     17959     17960
     17959     17961     17962     17963     17962     17964     17965     17966
     17965     17967     17968     17969     17968     17970     17971     17972
     17971     17973     17974     17975     17974     17976     17977     17978
     17977     17979     17980     17981     17980     17982     17983     17984
     17983     17985     17986     17987     17986     17988     17989     17990
     17989     17991     17992     17993     17992     17994     17995     17996
     17995     17997     17998     17999     17998     18000     18001     18002
     18001     18003     18004     18005     18004     18006     18007     18008
     18007     18009     18010     18011     18010     18012     18013     18014
     18013     18015     18016     18017     18016     18018     18019     18020
     18019     18021     18022     18023     18022     18024     18025     18026
     18025     18027     18028     18029     18028     18030     18031     18032
     18031     18033     18034     18035     18034     18036     18037     18038
     18037     18039     18040     18041     18040     18042     18043     18044
     18043     18045     18046     18047     18046     18048     18049     18050
     18049     18051     18052     18053     18052     18054     18055     18056
     18055     18057     18058     18059     18058     18060     18061     18062
     18061     18063     18064     18065     18064     18066     18067     18068
     18067     18069     18070     18071     18070     18072     18073     18074
     18073     18075     18076     18077     18076     18078     18079     18080
     18079     18081     18082     18083     18082     18084     18085     18086
     18085     18087     18088     18089     18088     18090     18091     18092
     18091     18093     18094     18095     18094     18096     18097     18098
     18097     18099     18100     18101     18100     18102     18103     18104
     18103     18105     18106     18107     18106     18108     18109     18110
     18109     18111     18112     18113     18112     18114     18115     18116
     18115     18117     18118     18119     18118     18120     18121     18122
     18121     18123     18124     18125     18124     18126     18127     18128
     18127     18129     18130     18131     18130     18132     18133     18134
     18133     18135     18136     18137     18136     18138     18139     18140
     18139     18141     18142     18143     18142     18144     18145     18146
     18145     18147     18148     18149     18148     18150     18151     18152
     18151     18153     18154     18155     18154     18156     18157     18158
     18157     18159     18160     18161     18160     18162     18163     18164
     18163     18165     18166     18167     18166     18168     18169     18170
     18169     18171     18172     18173     18172     18174     18175     18176
     18175     18177     18178     18179     18178     18180     18181     18182
     18181     18183     18184     18185     18184     18186     18187     18188
     18187     18189     18190     18191     18190     18192     18193     18194
     18193     18195     18196     18197     18196     18198     18199     18200
     18199     18201     18202     18203     18202     18204     18205     18206
     18205     18207     18208     18209     18208     18210     18211     18212
     18211     18213     18214     18215     18214     18216     18217     18218
     18217     18219     18220     18221     18220     18222     18223     18224
     18223     18225     18226     18227     18226     18228     18229     18230
     18229     18231     18232     18233     18232     18234     18235     18236
     18235     18237     18238     18239     18238     18240     18241     18242
     18241     18243     18244     18245     18244     18246     18247     18248
     18247     18249     18250     18251     18250     18252     18253     18254
     18253     18255     18256     18257     18256     18258     18259     18260
     18259     18261     18262     18263     18262     18264     18265     18266
     18265     18267     18268     18269     18268     18270     18271     18272
     18271     18273     18274     18275     18274     18276     18277     18278
     18277     18279     18280     18281     18280     18282     18283     18284
     18283     18285     18286     18287     18286     18288     18289     18290
     18289     18291     18292     18293     18292     18294     18295     18296
     18295     18297     18298     18299     18298     18300     18301     18302
     18301     18303     18304     18305     18304     18306     18307     18308
     18307     18309     18310     18311     18310     18312     18313     18314
     18313     18315     18316     18317     18316     18318     18319     18320
     18319     18321     18322     18323     18322     18324     18325     18326
     18325     18327     18328     18329     18328     18330     18331     18332
     18331     18333     18334     18335     18334     18336     18337     18338
     18337     18339     18340     18341     18340     18342     18343     18344
     18343     18345     18346     18347     18346     18348     18349     18350
     18349     18351     18352     18353     18352     18354     18355     18356
     18355     18357     18358     18359     18358     18360     18361     18362
     18361     18363     18364     18365     18364     18366     18367     18368
     18367     18369     18370     18371     18370     18372     18373     18374
     18373     18375     18376     18377     18376     18378     18379     18380
     18379     18381     18382     18383     18382     18384     18385     18386
     18385     18387     18388     18389     18388     18390     18391     18392
     18391     18393     18394     18395     18394     18396     18397     18398
     18397     18399     18400     18401     18400     18402     18403     18404
     18403     18405     18406     18407     18406     18408     18409     18410
     18409     18411     18412     18413     18412     18414     18415     18416
     18415     18417     18418     18419     18418     18420     18421     18422
     18421     18423     18424     18425     18424     18426     18427     18428
     18427     18429     18430     18431     18430     18432     18433     18434
     18433     18435     18436     18437     18436     18438     18439     18440
     18439     18441     18442     18443     18442     18444     18445     18446
     18445     18447     18448     18449     18448     18450     18451     18452
     18451     18453     18454     18455     18454     18456     18457     18458
     18457     18459     18460     18461     18460     18462     18463     18464
     18463     18465     18466     18467     18466     18468     18469     18470
     18469     18471     18472     18473     18472     18474     18475     18476
     18475     18477     18478     18479     18478     18480     18481     18482
     18481     18483     18484     18485     18484     18486     18487     18488
     18487     18489     18490     18491     18490     18492     18493     18494
     18493     18495     18496     18497     18496     18498     18499     18500
     18499     18501     18502     18503     18502     18504     18505     18506
     18505     18507     18508     18509     18508     18510     18511     18512
     18511     18513     18514     18515     18514     18516     18517     18518
     18517     18519     18520     18521     18520     18522     18523     18524
     18523     18525     18526     18527     18526     18528     18529     18530
     18529     18531     18532     18533     18532     18534     18535     18536
     18535     18537     18538     18539     18538     18540     18541     18542
     18541     18543     18544     18545     18544     18546     18547     18548
     18547     18549     18550     18551     18550     18552     18553     18554
     18553     18555     18556     18557     18556     18558     18559     18560
     18559     18561     18562     18563     18562     18564     18565     18566
     18565     18567     18568     18569     18568     18570     18571     18572
     18571     18573     18574     18575     18574     18576     18577     18578
     18577     18579     18580     18581     18580     18582     18583     18584
     18583     18585     18586     18587     18586     18588     18589     18590
     18589     18591     18592     18593     18592     18594     18595     18596
     18595     18597     18598     18599     18598     18600     18601     18602
     18601     18603     18604     18605     18604     18606     18607     18608
     18607     18609     18610     18611     18610     18612     18613     18614
     18613     18615     18616     18617     18616     18618     18619     18620
     18619     18621     18622     18623     18622     18624     18625     18626
     18625     18627     18628     18629     18628     18630     18631     18632
     18631     18633     18634     18635     18634     18636     18637     18638
     18637     18639     18640     18641     18640     18642     18643     18644
     18643     18645     18646     18647     18646     18648     18649     18650
     18649     18651     18652     18653     18652     18654     18655     18656
     18655     18657     18658     18659     18658     18660     18661     18662
     18661     18663     18664     18665     18664     18666     18667     18668
     18667     18669     18670     18671     18670     18672     18673     18674
     18673     18675     18676     18677     18676     18678     18679     18680
     18679     18681     18682     18683     18682     18684     18685     18686
     18685     18687     18688     18689     18688     18690     18691     18692
     18691     18693     18694     18695     18694     18696     18697     18698
     18697     18699     18700     18701     18700     18702     18703     18704
     18703     18705     18706     18707     18706     18708     18709     18710
     18709     18711     18712     18713     18712     18714     18715     18716
     18715     18717     18718     18719     18718     18720     18721     18722
     18721     18723     18724     18725     18724     18726     18727     18728
     18727     18729     18730     18731     18730     18732     18733     18734
     18733     18735     18736     18737     18736     18738     18739     18740
     18739     18741     18742     18743     18742     18744     18745     18746
     18745     18747     18748     18749     18748     18750     18751     18752
     18751     18753     18754     18755     18754     18756     18757     18758
     18757     18759     18760     18761     18760     18762     18763     18764
     18763     18765     18766     18767     18766     18768     18769     18770
     18769     18771     18772     18773     18772     18774     18775     18776
     18775     18777     18778     18779     18778     18780     18781     18782
     18781     18783     18784     18785     18784     18786     18787     18788
     18787     18789     18790     18791     18790     18792     18793     18794
     18793     18795     18796     18797     18796     18798     18799     18800
     18799     18801     18802     18803     18802     18804     18805     18806
     18805     18807     18808     18809     18808     18810     18811     18812
     18811     18813     18814     18815     18814     18816     18817     18818
     18817     18819     18820     18821     18820     18822     18823     18824
     18823     18825     18826     18827     18826     18828     18829     18830
     18829     18831     18832     18833     18832     18834     18835     18836
     18835     18837     18838     18839     18838     18840     18841     18842
     18841     18843     18844     18845     18844     18846     18847     18848
     18847     18849     18850     18851     18850     18852     18853     18854
     18853     18855     18856     18857     18856     18858     18859     18860
     18859     18861     18862     18863     18862     18864     18865     18866
     18865     18867     18868     18869     18868     18870     18871     18872
     18871     18873     18874     18875     18874     18876     18877     18878
     18877     18879     18880     18881     18880     18882     18883     18884
     18883     18885     18886     18887     18886     18888     18889     18890
     18889     18891     18892     18893     18892     18894     18895     18896
     18895     18897     18898     18899     18898     18900     18901     18902
     18901     18903     18904     18905     18904     18906     18907     18908
     18907     18909     18910     18911     18910     18912     18913     18914
     18913     18915     18916     18917     18916     18918     18919     18920
     18919     18921     18922     18923     18922     18924     18925     18926
     18925     18927     18928     18929     18928     18930     18931     18932
     18931     18933     18934     18935     18934     18936     18937     18938
     18937     18939     18940     18941     18940     18942     18943     18944
     18943     18945     18946     18947     18946     18948     18949     18950
     18949     18951     18952     18953     18952     18954     18955     18956
     18955     18957     18958     18959     18958     18960     18961     18962
     18961     18963     18964     18965     18964     18966     18967     18968
     18967     18969     18970     18971     18970     18972     18973     18974
     18973     18975     18976     18977     18976     18978     18979     18980
     18979     18981     18982     18983     18982     18984     18985     18986
     18985     18987     18988     18989     18988     18990     18991     18992
     18991     18993     18994     18995     18994     18996     18997     18998
     18997     18999     19000     19001     19000     19002     19003     19004
     19003     19005     19006     19007     19006     19008     19009     19010
     19009     19011     19012     19013     19012     19014     19015     19016
     19015     19017     19018     19019     19018     19020     19021     19022
     19021     19023     19024     19025     19024     19026     19027     19028
     19027     19029     19030     19031     19030     19032     19033     19034
     19033     19035     19036     19037     19036     19038     19039     19040
     19039     19041     19042     19043     19042     19044     19045     19046
     19045     19047     19048     19049     19048     19050     19051     19052
     19051     19053     19054     19055     19054     19056     19057     19058
     19057     19059     19060     19061     19060     19062     19063     19064
     19063     19065     19066     19067     19066     19068     19069     19070
     19069     19071     19072     19073     19072     19074     19075     19076
     19075     19077     19078     19079     19078     19080     19081     19082
     19081     19083     19084     19085     19084     19086     19087     19088
     19087     19089     19090     19091     19090     19092     19093     19094
     19093     19095     19096     19097     19096     19098     19099     19100
     19099     19101     19102     19103     19102     19104     19105     19106
     19105     19107     19108     19109     19108     19110     19111     19112
     19111     19113     19114     19115     19114     19116     19117     19118
     19117     19119     19120     19121     19120     19122     19123     19124
     19123     19125     19126     19127     19126     19128     19129     19130
     19129     19131     19132     19133     19132     19134     19135     19136
     19135     19137     19138     19139     19138     19140     19141     19142
     19141     19143     19144     19145     19144     19146     19147     19148
     19147     19149     19150     19151     19150     19152     19153     19154
     19153     19155     19156     19157     19156     19158     19159     19160
     19159     19161     19162     19163     19162     19164     19165     19166
     19165     19167     19168     19169     19168     19170     19171     19172
     19171     19173     19174     19175     19174     19176     19177     19178
     19177     19179     19180     19181     19180     19182     19183     19184
     19183     19185     19186     19187     19186     19188     19189     19190
     19189     19191     19192     19193     19192     19194     19195     19196
     19195     19197     19198     19199     19198     19200     19201     19202
     19201     19203     19204     19205     19204     19206     19207     19208
     19207     19209     19210     19211     19210     19212     19213     19214
     19213     19215     19216     19217     19216     19218     19219     19220
     19219     19221     19222     19223     19222     19224     19225     19226
     19225     19227     19228     19229     19228     19230     19231     19232
     19231     19233     19234     19235     19234     19236     19237     19238
     19237     19239     19240     19241     19240     19242     19243     19244
     19243     19245     19246     19247     19246     19248     19249     19250
     19249     19251     19252     19253     19252     19254     19255     19256
     19255     19257     19258     19259     19258     19260     19261     19262
     19261     19263     19264     19265     19264     19266     19267     19268
     19267     19269     19270     19271     19270     19272     19273     19274
     19273     19275     19276     19277     19276     19278     19279     19280
     19279     19281     19282     19283     19282     19284     19285     19286
     19285     19287     19288     19289     19288     19290     19291     19292
     19291     19293     19294     19295     19294     19296     19297     19298
     19297     19299     19300     19301     19300     19302     19303     19304
     19303     19305     19306     19307     19306     19308     19309     19310
     19309     19311     19312     19313     19312     19314     19315     19316
     19315     19317     19318     19319     19318     19320     19321     19322
     19321     19323     19324     19325     19324     19326     19327     19328
     19327     19329     19330     19331     19330     19332     19333     19334
     19333     19335     19336     19337     19336     19338     19339     19340
     19339     19341     19342     19343     19342     19344     19345     19346
     19345     19347     19348     19349     19348     19350     19351     19352
     19351     19353     19354     19355     19354     19356     19357     19358
     19357     19359     19360     19361     19360     19362     19363     19364
     19363     19365     19366     19367     19366     19368     19369     19370
     19369     19371     19372     19373     19372     19374     19375     19376
     19375     19377     19378     19379     19378     19380     19381     19382
     19381     19383     19384     19385     19384     19386     19387     19388
     19387     19389     19390     19391     19390     19392     19393     19394
     19393     19395     19396     19397     19396     19398     19399     19400
     19399     19401     19402     19403     19402     19404     19405     19406
     19405     19407     19408     19409     19408     19410     19411     19412
     19411     19413     19414     19415     19414     19416     19417     19418
     19417     19419     19420     19421     19420     19422     19423     19424
     19423     19425     19426     19427     19426     19428     19429     19430
     19429     19431     19432     19433     19432     19434     19435     19436
     19435     19437     19438     19439     19438     19440     19441     19442
     19441     19443     19444     19445     19444     19446     19447     19448
     19447     19449     19450     19451     19450     19452     19453     19454
     19453     19455     19456     19457     19456     19458     19459     19460
     19459     19461     19462     19463     19462     19464     19465     19466
     19465     19467     19468     19469     19468     19470     19471     19472
     19471     19473     19474     19475     19474     19476     19477     19478
     19477     19479     19480     19481     19480     19482     19483     19484
     19483     19485     19486     19487     19486     19488     19489     19490
     19489     19491     19492     19493     19492     19494     19495     19496
     19495     19497     19498     19499     19498     19500     19501     19502
     19501     19503     19504     19505     19504     19506     19507     19508
     19507     19509     19510     19511     19510     19512     19513     19514
     19513     19515     19516     19517     19516     19518     19519     19520
     19519     19521     19522     19523     19522     19524     19525     19526
     19525     19527     19528     19529     19528     19530     19531     19532
     19531     19533     19534     19535     19534     19536     19537     19538
     19537     19539     19540     19541     19540     19542     19543     19544
     19543     19545     19546     19547     19546     19548     19549     19550
     19549     19551     19552     19553     19552     19554     19555     19556
     19555     19557     19558     19559     19558     19560     19561     19562
     19561     19563     19564     19565     19564     19566     19567     19568
     19567     19569     19570     19571     19570     19572     19573     19574
     19573     19575     19576     19577     19576     19578     19579     19580
     19579     19581     19582     19583     19582     19584     19585     19586
     19585     19587     19588     19589     19588     19590     19591     19592
     19591     19593     19594     19595     19594     19596     19597     19598
     19597     19599     19600     19601     19600     19602     19603     19604
     19603     19605     19606     19607     19606     19608     19609     19610
     19609     19611     19612     19613     19612     19614     19615     19616
     19615     19617     19618     19619     19618     19620     19621     19622
     19621     19623     19624     19625     19624     19626     19627     19628
     19627     19629     19630     19631     19630     19632     19633     19634
     19633     19635     19636     19637     19636     19638     19639     19640
     19639     19641     19642     19643     19642     19644     19645     19646
     19645     19647     19648     19649     19648     19650     19651     19652
     19651     19653     19654     19655     19654     19656     19657     19658
     19657     19659     19660     19661     19660     19662     19663     19664
     19663     19665     19666     19667     19666     19668     19669     19670
     19669     19671     19672     19673     19672     19674     19675     19676
     19675     19677     19678     19679     19678     19680     19681     19682
     19681     19683     19684     19685     19684     19686     19687     19688
     19687     19689     19690     19691     19690     19692     19693     19694
     19693     19695     19696     19697     19696     19698     19699     19700
     19699     19701     19702     19703     19702     19704     19705     19706
     19705     19707     19708     19709     19708     19710     19711     19712
     19711     19713     19714     19715     19714     19716     19717     19718
     19717     19719     19720     19721     19720     19722     19723     19724
     19723     19725     19726     19727     19726     19728     19729     19730
     19729     19731     19732     19733     19732     19734     19735     19736
     19735     19737     19738     19739     19738     19740     19741     19742
     19741     19743     19744     19745     19744     19746     19747     19748
     19747     19749     19750     19751     19750     19752     19753     19754
     19753     19755     19756     19757     19756     19758     19759     19760
     19759     19761     19762     19763     19762     19764     19765     19766
     19765     19767     19768     19769     19768     19770     19771     19772
     19771     19773     19774     19775     19774     19776     19777     19778
     19777     19779     19780     19781     19780     19782     19783     19784
     19783     19785     19786     19787     19786     19788     19789     19790
     19789     19791     19792     19793     19792     19794     19795     19796
     19795     19797     19798     19799     19798     19800     19801     19802
     19801     19803     19804     19805     19804     19806     19807     19808
     19807     19809     19810     19811     19810     19812     19813     19814
     19813     19815     19816     19817     19816     19818     19819     19820
     19819     19821     19822     19823     19822     19824     19825     19826
     19825     19827     19828     19829     19828     19830     19831     19832
     19831     19833     19834     19835     19834     19836     19837     19838
     19837     19839     19840     19841     19840     19842     19843     19844
     19843     19845     19846     19847     19846     19848     19849     19850
     19849     19851     19852     19853     19852     19854     19855     19856
     19855     19857     19858     19859     19858     19860     19861     19862
     19861     19863     19864     19865     19864     19866     19867     19868
     19867     19869     19870     19871     19870     19872     19873     19874
     19873     19875     19876     19877     19876     19878     19879     19880
     19879     19881     19882     19883     19882     19884     19885     19886
     19885     19887     19888     19889     19888     19890     19891     19892
     19891     19893     19894     19895     19894     19896     19897     19898
     19897     19899     19900     19901     19900     19902     19903     19904
     19903     19905     19906     19907     19906     19908     19909     19910
     19909     19911     19912     19913     19912     19914     19915     19916
     19915     19917     19918     19919     19918     19920     19921     19922
     19921     19923     19924     19925     19924     19926     19927     19928
     19927     19929     19930     19931     19930     19932     19933     19934
     19933     19935     19936     19937     19936     19938     19939     19940
     19939     19941     19942     19943     19942     19944     19945     19946
     19945     19947     19948     19949     19948     19950     19951     19952
     19951     19953     19954     19955     19954     19956     19957     19958
     19957     19959     19960     19961     19960     19962     19963     19964
     19963     19965     19966     19967     19966     19968     19969     19970
     19969     19971     19972     19973     19972     19974     19975     19976
     19975     19977     19978     19979     19978     19980     19981     19982
     19981     19983     19984     19985     19984     19986     19987     19988
     19987     19989     19990     19991     19990     19992     19993     19994
     19993     19995     19996     19997     19996     19998     19999     20000
     19999     20001     20002     20003     20002     20004     20005     20006
     20005     20007     20008     20009     20008     20010     20011     20012
     20011     20013     20014     20015     20014     20016     20017     20018
     20017     20019     20020     20021     20020     20022     20023     20024
     20023     20025     20026     20027     20026     20028     20029     20030
     20029     20031     20032     20033     20032     20034     20035     20036
     20035     20037     20038     20039     20038     20040     20041     20042
     20041     20043     20044     20045     20044     20046     20047     20048
     20047     20049     20050     20051     20050     20052     20053     20054
     20053     20055     20056     20057     20056     20058     20059     20060
     20059     20061     20062     20063     20062     20064     20065     20066
     20065     20067     20068     20069     20068     20070     20071     20072
     20071     20073     20074     20075     20074     20076     20077     20078
     20077     20079     20080     20081     20080     20082     20083     20084
     20083     20085     20086     20087     20086     20088     20089     20090
     20089     20091     20092     20093     20092     20094     20095     20096
     20095     20097     20098     20099     20098     20100     20101     20102
     20101     20103     20104     20105     20104     20106     20107     20108
     20107     20109     20110     20111     20110     20112     20113     20114
     20113     20115     20116     20117     20116     20118     20119     20120
     20119     20121     20122     20123     20122     20124     20125     20126
     20125     20127     20128     20129     20128     20130     20131     20132
     20131     20133     20134     20135     20134     20136     20137     20138
     20137     20139     20140     20141     20140     20142     20143     20144
     20143     20145     20146     20147     20146     20148     20149     20150
     20149     20151     20152     20153     20152     20154     20155     20156
     20155     20157     20158     20159     20158     20160     20161     20162
     20161     20163     20164     20165     20164     20166     20167     20168
     20167     20169     20170     20171     20170     20172     20173     20174
     20173     20175     20176     20177     20176     20178     20179     20180
     20179     20181     20182     20183     20182     20184     20185     20186
     20185     20187     20188     20189     20188     20190     20191     20192
     20191     20193     20194     20195     20194     20196     20197     20198
     20197     20199     20200     20201     20200     20202     20203     20204
     20203     20205     20206     20207     20206     20208     20209     20210
     20209     20211     20212     20213     20212     20214     20215     20216
     20215     20217     20218     20219     20218     20220     20221     20222
     20221     20223     20224     20225     20224     20226     20227     20228
     20227     20229     20230     20231     20230     20232     20233     20234
     20233     20235     20236     20237     20236     20238     20239     20240
     20239     20241     20242     20243     20242     20244     20245     20246
     20245     20247     20248     20249     20248     20250     20251     20252
     20251     20253     20254     20255     20254     20256     20257     20258
     20257     20259     20260     20261     20260     20262     20263     20264
     20263     20265     20266     20267     20266     20268     20269     20270
     20269     20271     20272     20273     20272     20274     20275     20276
     20275     20277     20278     20279     20278     20280     20281     20282
     20281     20283     20284     20285     20284     20286     20287     20288
     20287     20289     20290     20291     20290     20292     20293     20294
     20293     20295     20296     20297     20296     20298     20299     20300
     20299     20301     20302     20303     20302     20304     20305     20306
     20305     20307     20308     20309     20308     20310     20311     20312
     20311     20313     20314     20315     20314     20316     20317     20318
     20317     20319     20320     20321     20320     20322     20323     20324
     20323     20325     20326     20327     20326     20328     20329     20330
     20329     20331     20332     20333     20332     20334     20335     20336
     20335     20337     20338     20339     20338     20340     20341     20342
     20341     20343     20344     20345     20344     20346     20347     20348
     20347     20349     20350     20351     20350     20352     20353     20354
     20353     20355     20356     20357     20356     20358     20359     20360
     20359     20361     20362     20363     20362     20364     20365     20366
     20365     20367     20368     20369     20368     20370     20371     20372
     20371     20373     20374     20375     20374     20376     20377     20378
     20377     20379     20380     20381     20380     20382     20383     20384
     20383     20385     20386     20387     20386     20388     20389     20390
     20389     20391     20392     20393     20392     20394     20395     20396
     20395     20397     20398     20399     20398     20400     20401     20402
     20401     20403     20404     20405     20404     20406     20407     20408
     20407     20409     20410     20411     20410     20412     20413     20414
     20413     20415     20416     20417     20416     20418     20419     20420
     20419     20421     20422     20423     20422     20424     20425     20426
     20425     20427     20428     20429     20428     20430     20431     20432
     20431     20433     20434     20435     20434     20436     20437     20438
     20437     20439     20440     20441     20440     20442     20443     20444
     20443     20445     20446     20447     20446     20448     20449     20450
     20449     20451     20452     20453     20452     20454     20455     20456
     20455     20457     20458     20459     20458     20460     20461     20462
     20461     20463     20464     20465     20464     20466     20467     20468
     20467     20469     20470     20471     20470     20472     20473     20474
     20473     20475     20476     20477     20476     20478     20479     20480
     20479     20481     20482     20483     20482     20484     20485     20486
     20485     20487     20488     20489     20488     20490     20491     20492
     20491     20493     20494     20495     20494     20496     20497     20498
     20497     20499     20500     20501     20500     20502     20503     20504
     20503     20505     20506     20507     20506     20508     20509     20510
     20509     20511     20512     20513     20512     20514     20515     20516
     20515     20517     20518     20519     20518     20520     20521     20522
     20521     20523     20524     20525     20524     20526     20527     20528
     20527     20529     20530     20531     20530     20532     20533     20534
     20533     20535     20536     20537     20536     20538     20539     20540
     20539     20541     20542     20543     20542     20544     20545     20546
     20545     20547     20548     20549     20548     20550     20551     20552
     20551     20553     20554     20555     20554     20556     20557     20558
     20557     20559     20560     20561     20560     20562     20563     20564
     20563     20565     20566     20567     20566     20568     20569     20570
     20569     20571     20572     20573     20572     20574     20575     20576
     20575     20577     20578     20579     20578     20580     20581     20582
     20581     20583     20584     20585     20584     20586     20587     20588
     20587     20589     20590     20591     20590     20592     20593     20594
     20593     20595     20596     20597     20596     20598     20599     20600
     20599     20601     20602     20603     20602     20604     20605     20606
     20605     20607     20608     20609     20608     20610     20611     20612
     20611     20613     20614     20615     20614     20616     20617     20618
     20617     20619     20620     20621     20620     20622     20623     20624
     20623     20625     20626     20627     20626     20628     20629     20630
     20629     20631     20632     20633     20632     20634     20635     20636
     20635     20637     20638     20639     20638     20640     20641     20642
     20641     20643     20644     20645     20644     20646     20647     20648
     20647     20649     20650     20651     20650     20652     20653     20654
     20653     20655     20656     20657     20656     20658     20659     20660
     20659     20661     20662     20663     20662     20664     20665     20666
     20665     20667     20668     20669     20668     20670     20671     20672
     20671     20673     20674     20675     20674     20676     20677     20678
     20677     20679     20680     20681     20680     20682     20683     20684
     20683     20685     20686     20687     20686     20688     20689     20690
     20689     20691     20692     20693     20692     20694     20695     20696
     20695     20697     20698     20699     20698     20700     20701     20702
     20701     20703     20704     20705     20704     20706     20707     20708
     20707     20709     20710     20711     20710     20712     20713     20714
     20713     20715     20716     20717     20716     20718     20719     20720
     20719     20721     20722     20723     20722     20724     20725     20726
     20725     20727     20728     20729     20728     20730     20731     20732
     20731     20733     20734     20735     20734     20736     20737     20738
     20737     20739     20740     20741     20740     20742     20743     20744
     20743     20745     20746     20747     20746     20748     20749     20750
     20749     20751     20752     20753     20752     20754     20755     20756
     20755     20757     20758     20759     20758     20760     20761     20762
     20761     20763     20764     20765     20764     20766     20767     20768
     20767     20769     20770     20771     20770     20772     20773     20774
     20773     20775     20776     20777     20776     20778     20779     20780
     20779     20781     20782     20783     20782     20784     20785     20786
     20785     20787     20788     20789     20788     20790     20791     20792
     20791     20793     20794     20795     20794     20796     20797     20798
     20797     20799     20800     20801     20800     20802     20803     20804
     20803     20805     20806     20807     20806     20808     20809     20810
     20809     20811     20812     20813     20812     20814     20815     20816
     20815     20817     20818     20819     20818     20820     20821     20822
     20821     20823     20824     20825     20824     20826     20827     20828
     20827     20829     20830     20831     20830     20832     20833     20834
     20833     20835     20836     20837     20836     20838     20839     20840
     20839     20841     20842     20843     20842     20844     20845     20846
     20845     20847     20848     20849     20848     20850     20851     20852
     20851     20853     20854     20855     20854     20856     20857     20858
     20857     20859     20860     20861     20860     20862     20863     20864
     20863     20865     20866     20867     20866     20868     20869     20870
     20869     20871     20872     20873     20872     20874     20875     20876
     20875     20877     20878     20879     20878     20880     20881     20882
     20881     20883     20884     20885     20884     20886     20887     20888
     20887     20889     20890     20891     20890     20892     20893     20894
     20893     20895     20896     20897     20896     20898     20899     20900
     20899     20901     20902     20903     20902     20904     20905     20906
     20905     20907     20908     20909     20908     20910     20911     20912
     20911     20913     20914     20915     20914     20916     20917     20918
     20917     20919     20920     20921     20920     20922     20923     20924
     20923     20925     20926     20927     20926     20928     20929     20930
     20929     20931     20932     20933     20932     20934     20935     20936
     20935     20937     20938     20939     20938     20940     20941     20942
     20941     20943     20944     20945     20944     20946     20947     20948
     20947     20949     20950     20951     20950     20952     20953     20954
     20953     20955     20956     20957     20956     20958     20959     20960
     20959     20961     20962     20963     20962     20964     20965     20966
     20965     20967     20968     20969     20968     20970     20971     20972
     20971     20973     20974     20975     20974     20976     20977     20978
     20977     20979     20980     20981     20980     20982     20983     20984
     20983     20985     20986     20987     20986     20988     20989     20990
     20989     20991     20992     20993     20992     20994     20995     20996
     20995     20997     20998     20999     20998     21000     21001     21002
     21001     21003     21004     21005     21004     21006     21007     21008
     21007     21009     21010     21011     21010     21012     21013     21014
     21013     21015     21016     21017     21016     21018     21019     21020
     21019     21021     21022     21023     21022     21024     21025     21026
     21025     21027     21028     21029     21028     21030     21031     21032
     21031     21033     21034     21035     21034     21036     21037     21038
     21037     21039     21040     21041     21040     21042     21043     21044
     21043     21045     21046     21047     21046     21048     21049     21050
     21049     21051     21052     21053     21052     21054     21055     21056
     21055     21057     21058     21059     21058     21060     21061     21062
     21061     21063     21064     21065     21064     21066     21067     21068
     21067     21069     21070     21071     21070     21072     21073     21074
     21073     21075     21076     21077     21076     21078     21079     21080
     21079     21081     21082     21083     21082     21084     21085     21086
     21085     21087     21088     21089     21088     21090     21091     21092
     21091     21093     21094     21095     21094     21096     21097     21098
     21097     21099     21100     21101     21100     21102     21103     21104
     21103     21105     21106     21107     21106     21108     21109     21110
     21109     21111     21112     21113     21112     21114     21115     21116
     21115     21117     21118     21119     21118     21120     21121     21122
     21121     21123     21124     21125     21124     21126     21127     21128
     21127     21129     21130     21131     21130     21132     21133     21134
     21133     21135     21136     21137     21136     21138     21139     21140
     21139     21141     21142     21143     21142     21144     21145     21146
     21145     21147     21148     21149     21148     21150     21151     21152
     21151     21153     21154     21155     21154     21156     21157     21158
     21157     21159     21160     21161     21160     21162     21163     21164
     21163     21165     21166     21167     21166     21168     21169     21170
     21169     21171     21172     21173     21172     21174     21175     21176
     21175     21177     21178     21179     21178     21180     21181     21182
     21181     21183     21184     21185     21184     21186     21187     21188
     21187     21189     21190     21191     21190     21192     21193     21194
     21193     21195     21196     21197     21196     21198     21199     21200
     21199     21201     21202     21203     21202     21204     21205     21206
     21205     21207     21208     21209     21208     21210     21211     21212
     21211     21213     21214     21215     21214     21216     21217     21218
     21217     21219     21220     21221     21220     21222     21223     21224
     21223     21225     21226     21227     21226     21228     21229     21230
     21229     21231     21232     21233     21232     21234     21235     21236
     21235     21237     21238     21239     21238     21240     21241     21242
     21241     21243     21244     21245     21244     21246     21247     21248
     21247     21249     21250     21251     21250     21252     21253     21254
     21253     21255     21256     21257     21256     21258     21259     21260
     21259     21261     21262     21263     21262     21264     21265     21266
     21265     21267     21268     21269     21268     21270     21271     21272
     21271     21273     21274     21275     21274     21276     21277     21278
     21277     21279     21280     21281     21280     21282     21283     21284
     21283     21285     21286     21287     21286     21288     21289     21290
     21289     21291     21292     21293     21292     21294     21295     21296
     21295     21297     21298     21299     21298     21300     21301     21302
     21301     21303     21304     21305     21304     21306     21307     21308
     21307     21309     21310     21311     21310     21312     21313     21314
     21313     21315     21316     21317     21316     21318     21319     21320
     21319     21321     21322     21323     21322     21324     21325     21326
     21325     21327     21328     21329     21328     21330     21331     21332
     21331     21333     21334     21335     21334     21336     21337     21338
     21337     21339     21340     21341     21340     21342     21343     21344
     21343     21345     21346     21347     21346     21348     21349     21350
     21349     21351     21352     21353     21352     21354     21355     21356
     21355     21357     21358     21359     21358     21360     21361     21362
     21361     21363     21364     21365     21364     21366     21367     21368
     21367     21369     21370     21371     21370     21372     21373     21374
     21373     21375     21376     21377     21376     21378     21379     21380
     21379     21381     21382     21383     21382     21384     21385     21386
     21385     21387     21388     21389     21388     21390     21391     21392
     21391     21393     21394     21395     21394     21396     21397     21398
     21397     21399     21400     21401     21400     21402     21403     21404
     21403     21405     21406     21407     21406     21408     21409     21410
     21409     21411     21412     21413     21412     21414     21415     21416
     21415     21417     21418     21419     21418     21420     21421     21422
     21421     21423     21424     21425     21424     21426     21427     21428
     21427     21429     21430     21431     21430     21432     21433     21434
     21433     21435     21436     21437     21436     21438     21439     21440
     21439     21441     21442     21443     21442     21444     21445     21446
     21445     21447     21448     21449     21448     21450     21451     21452
     21451     21453     21454     21455     21454     21456     21457     21458
     21457     21459     21460     21461     21460     21462     21463     21464
     21463     21465     21466     21467     21466     21468     21469     21470
     21469     21471     21472     21473     21472     21474     21475     21476
     21475     21477     21478     21479     21478     21480     21481     21482
     21481     21483     21484     21485     21484     21486     21487     21488
     21487     21489     21490     21491     21490     21492     21493     21494
     21493     21495     21496     21497     21496     21498     21499     21500
     21499     21501     21502     21503     21502     21504     21505     21506
     21505     21507     21508     21509     21508     21510     21511     21512
     21511     21513     21514     21515     21514     21516     21517     21518
     21517     21519     21520     21521     21520     21522     21523     21524
     21523     21525     21526     21527     21526     21528     21529     21530
     21529     21531     21532     21533     21532     21534     21535     21536
     21535     21537     21538     21539     21538     21540     21541     21542
     21541     21543     21544     21545     21544     21546     21547     21548
     21547     21549     21550     21551     21550     21552     21553     21554
     21553     21555     21556     21557     21556     21558     21559     21560
     21559     21561     21562     21563     21562     21564     21565     21566
     21565     21567     21568     21569     21568     21570     21571     21572
     21571     21573     21574     21575     21574     21576     21577     21578
     21577     21579     21580     21581     21580     21582     21583     21584
     21583     21585     21586     21587     21586     21588     21589     21590
     21589     21591     21592     21593     21592     21594     21595     21596
     21595     21597     21598     21599     21598     21600     21601     21602
     21601     21603     21604     21605     21604     21606     21607     21608
     21607     21609     21610     21611     21610     21612     21613     21614
     21613     21615     21616     21617     21616     21618     21619     21620
     21619     21621     21622     21623     21622     21624     21625     21626
     21625     21627     21628     21629     21628     21630     21631     21632
     21631     21633     21634     21635     21634     21636     21637     21638
     21637     21639     21640     21641     21640     21642     21643     21644
     21643     21645     21646     21647     21646     21648     21649     21650
     21649     21651     21652     21653     21652     21654     21655     21656
     21655     21657     21658     21659     21658     21660     21661     21662
     21661     21663     21664     21665     21664     21666     21667     21668
     21667     21669     21670     21671     21670     21672     21673     21674
     21673     21675     21676     21677     21676     21678     21679     21680
     21679     21681     21682     21683     21682     21684     21685     21686
     21685     21687     21688     21689     21688     21690     21691     21692
     21691     21693     21694     21695     21694     21696     21697     21698
     21697     21699     21700     21701     21700     21702     21703     21704
     21703     21705     21706     21707     21706     21708     21709     21710
     21709     21711     21712     21713     21712     21714     21715     21716
     21715     21717     21718     21719     21718     21720     21721     21722
     21721     21723     21724     21725     21724     21726     21727     21728
     21727     21729     21730     21731     21730     21732     21733     21734
     21733     21735     21736     21737     21736     21738     21739     21740
     21739     21741     21742     21743     21742     21744     21745     21746
     21745     21747     21748     21749     21748     21750     21751     21752
     21751     21753     21754     21755     21754     21756     21757     21758
     21757     21759     21760     21761     21760     21762     21763     21764
     21763     21765     21766     21767     21766     21768     21769     21770
     21769     21771     21772     21773     21772     21774     21775     21776
     21775     21777     21778     21779     21778     21780     21781     21782
     21781     21783     21784     21785     21784     21786     21787     21788
     21787     21789     21790     21791     21790     21792     21793     21794
     21793     21795     21796     21797     21796     21798     21799     21800
     21799     21801     21802     21803     21802     21804     21805     21806
     21805     21807     21808     21809     21808     21810     21811     21812
     21811     21813     21814     21815     21814     21816     21817     21818
     21817     21819     21820     21821     21820     21822     21823     21824
     21823     21825     21826     21827     21826     21828     21829     21830
     21829     21831     21832     21833     21832     21834     21835     21836
     21835     21837     21838     21839     21838     21840     21841     21842
     21841     21843     21844     21845     21844     21846     21847     21848
     21847     21849     21850     21851     21850     21852     21853     21854
     21853     21855     21856     21857     21856     21858     21859     21860
     21859     21861     21862     21863     21862     21864     21865     21866
     21865     21867     21868     21869     21868     21870     21871     21872
     21871     21873     21874     21875     21874     21876     21877     21878
     21877     21879     21880     21881     21880     21882     21883     21884
     21883     21885     21886     21887     21886     21888     21889     21890
     21889     21891     21892     21893     21892     21894     21895     21896
     21895     21897     21898     21899     21898     21900     21901     21902
     21901     21903     21904     21905     21904     21906     21907     21908
     21907     21909     21910     21911     21910     21912     21913     21914
     21913     21915     21916     21917     21916     21918     21919     21920
     21919     21921     21922     21923     21922     21924     21925     21926
     21925     21927     21928     21929     21928     21930     21931     21932
     21931     21933     21934     21935     21934     21936     21937     21938
     21937     21939     21940     21941     21940     21942     21943     21944
     21943     21945     21946     21947     21946     21948     21949     21950
     21949     21951     21952     21953     21952     21954     21955     21956
     21955     21957     21958     21959     21958     21960     21961     21962
     21961     21963     21964     21965     21964     21966     21967     21968
     21967     21969     21970     21971     21970     21972     21973     21974
     21973     21975     21976     21977     21976     21978     21979     21980
     21979     21981     21982     21983     21982     21984     21985     21986
     21985     21987     21988     21989     21988     21990     21991     21992
     21991     21993     21994     21995     21994     21996     21997     21998
     21997     21999     22000     22001     22000     22002     22003     22004
     22003     22005     22006     22007     22006     22008     22009     22010
     22009     22011     22012     22013     22012     22014     22015     22016
     22015     22017     22018     22019     22018     22020     22021     22022
     22021     22023     22024     22025     22024     22026     22027     22028
     22027     22029     22030     22031     22030     22032     22033     22034
     22033     22035     22036     22037     22036     22038     22039     22040
     22039     22041     22042     22043     22042     22044     22045     22046
     22045     22047     22048     22049     22048     22050     22051     22052
     22051     22053     22054     22055     22054     22056     22057     22058
     22057     22059     22060     22061     22060     22062     22063     22064
     22063     22065     22066     22067     22066     22068     22069     22070
     22069     22071     22072     22073     22072     22074     22075     22076
     22075     22077     22078     22079     22078     22080     22081     22082
     22081     22083     22084     22085     22084     22086     22087     22088
     22087     22089     22090     22091     22090     22092     22093     22094
     22093     22095     22096     22097     22096     22098     22099     22100
     22099     22101     22102     22103     22102     22104     22105     22106
     22105     22107     22108     22109     22108     22110     22111     22112
     22111     22113     22114     22115     22114     22116     22117     22118
     22117     22119     22120     22121     22120     22122     22123     22124
     22123     22125     22126     22127     22126     22128     22129     22130
     22129     22131     22132     22133     22132     22134     22135     22136
     22135     22137     22138     22139     22138     22140     22141     22142
     22141     22143     22144     22145     22144     22146     22147     22148
     22147     22149     22150     22151     22150     22152     22153     22154
     22153     22155     22156     22157     22156     22158     22159     22160
     22159     22161     22162     22163     22162     22164     22165     22166
     22165     22167     22168     22169     22168     22170     22171     22172
     22171     22173     22174     22175     22174     22176     22177     22178
     22177     22179     22180     22181     22180     22182     22183     22184
     22183     22185     22186     22187     22186     22188     22189     22190
     22189     22191     22192     22193     22192     22194     22195     22196
     22195     22197     22198     22199     22198     22200     22201     22202
     22201     22203     22204     22205     22204     22206     22207     22208
     22207     22209     22210     22211     22210     22212     22213     22214
     22213     22215     22216     22217     22216     22218     22219     22220
     22219     22221     22222     22223     22222     22224     22225     22226
     22225     22227     22228     22229     22228     22230     22231     22232
     22231     22233     22234     22235     22234     22236     22237     22238
     22237     22239     22240     22241     22240     22242     22243     22244
     22243     22245     22246     22247     22246     22248     22249     22250
     22249     22251     22252     22253     22252     22254     22255     22256
     22255     22257     22258     22259     22258     22260     22261     22262
     22261     22263     22264     22265     22264     22266     22267     22268
     22267     22269     22270     22271     22270     22272     22273     22274
     22273     22275     22276     22277     22276     22278     22279     22280
     22279     22281     22282     22283     22282     22284     22285     22286
     22285     22287     22288     22289     22288     22290     22291     22292
     22291     22293     22294     22295     22294     22296     22297     22298
     22297     22299     22300     22301     22300     22302     22303     22304
     22303     22305     22306     22307     22306     22308     22309     22310
     22309     22311     22312     22313     22312     22314     22315     22316
     22315     22317     22318     22319     22318     22320     22321     22322
     22321     22323     22324     22325     22324     22326     22327     22328
     22327     22329     22330     22331     22330     22332     22333     22334
     22333     22335     22336     22337     22336     22338     22339     22340
     22339     22341     22342     22343     22342     22344     22345     22346
     22345     22347     22348     22349     22348     22350     22351     22352
     22351     22353     22354     22355     22354     22356     22357     22358
     22357     22359     22360     22361     22360     22362     22363     22364
     22363     22365     22366     22367     22366     22368     22369     22370
     22369     22371     22372     22373     22372     22374     22375     22376
     22375     22377     22378     22379     22378     22380     22381     22382
     22381     22383     22384     22385     22384     22386     22387     22388
     22387     22389     22390     22391     22390     22392     22393     22394
     22393     22395     22396     22397     22396     22398     22399     22400
     22399     22401     22402     22403     22402     22404     22405     22406
     22405     22407     22408     22409     22408     22410     22411     22412
     22411     22413     22414     22415     22414     22416     22417     22418
     22417     22419     22420     22421     22420     22422     22423     22424
     22423     22425     22426     22427     22426     22428     22429     22430
     22429     22431     22432     22433     22432     22434     22435     22436
     22435     22437     22438     22439     22438     22440     22441     22442
     22441     22443     22444     22445     22444     22446     22447     22448
     22447     22449     22450     22451     22450     22452     22453     22454
     22453     22455     22456     22457     22456     22458     22459     22460
     22459     22461     22462     22463     22462     22464     22465     22466
     22465     22467     22468     22469     22468     22470     22471     22472
     22471     22473     22474     22475     22474     22476     22477     22478
     22477     22479     22480     22481     22480     22482     22483     22484
     22483     22485     22486     22487     22486     22488     22489     22490
     22489     22491     22492     22493     22492     22494     22495     22496
     22495     22497     22498     22499     22498     22500     22501     22502
     22501     22503     22504     22505     22504     22506     22507     22508
     22507     22509     22510     22511     22510     22512     22513     22514
     22513     22515     22516     22517     22516     22518     22519     22520
     22519     22521     22522     22523     22522     22524     22525     22526
     22525     22527     22528     22529     22528     22530     22531     22532
     22531     22533     22534     22535     22534     22536     22537     22538
     22537     22539     22540     22541     22540     22542     22543     22544
     22543     22545     22546     22547     22546     22548     22549     22550
     22549     22551     22552     22553     22552     22554     22555     22556
     22555     22557     22558     22559     22558     22560     22561     22562
     22561     22563     22564     22565     22564     22566     22567     22568
     22567     22569     22570     22571     22570     22572     22573     22574
     22573     22575     22576     22577     22576     22578     22579     22580
     22579     22581     22582     22583     22582     22584     22585     22586
     22585     22587     22588     22589     22588     22590     22591     22592
     22591     22593     22594     22595     22594     22596     22597     22598
     22597     22599     22600     22601     22600     22602     22603     22604
     22603     22605     22606     22607     22606     22608     22609     22610
     22609     22611     22612     22613     22612     22614     22615     22616
     22615     22617     22618     22619     22618     22620     22621     22622
     22621     22623     22624     22625     22624     22626     22627     22628
     22627     22629     22630     22631     22630     22632     22633     22634
     22633     22635     22636     22637     22636     22638     22639     22640
     22639     22641     22642     22643     22642     22644     22645     22646
     22645     22647     22648     22649     22648     22650     22651     22652
     22651     22653     22654     22655     22654     22656     22657     22658
     22657     22659     22660     22661     22660     22662     22663     22664
     22663     22665     22666     22667     22666     22668     22669     22670
     22669     22671     22672     22673     22672     22674     22675     22676
     22675     22677     22678     22679     22678     22680     22681     22682
     22681     22683     22684     22685     22684     22686     22687     22688
     22687     22689     22690     22691     22690     22692     22693     22694
     22693     22695     22696     22697     22696     22698     22699     22700
     22699     22701     22702     22703     22702     22704     22705     22706
     22705     22707     22708     22709     22708     22710     22711     22712
     22711     22713     22714     22715     22714     22716     22717     22718
     22717     22719     22720     22721     22720     22722     22723     22724
     22723     22725     22726     22727     22726     22728     22729     22730
     22729     22731     22732     22733     22732     22734     22735     22736
     22735     22737     22738     22739     22738     22740     22741     22742
     22741     22743     22744     22745     22744     22746     22747     22748
     22747     22749     22750     22751     22750     22752     22753     22754
     22753     22755     22756     22757     22756     22758     22759     22760
     22759     22761     22762     22763     22762     22764     22765     22766
     22765     22767     22768     22769     22768     22770     22771     22772
     22771     22773     22774     22775     22774     22776     22777     22778
     22777     22779     22780     22781     22780     22782     22783     22784
     22783     22785     22786     22787     22786     22788     22789     22790
     22789     22791     22792     22793     22792     22794     22795     22796
     22795     22797     22798     22799     22798     22800     22801     22802
     22801     22803     22804     22805     22804     22806     22807     22808
     22807     22809     22810     22811     22810     22812     22813     22814
     22813     22815     22816     22817     22816     22818     22819     22820
     22819     22821     22822     22823     22822     22824     22825     22826
     22825     22827     22828     22829     22828     22830     22831     22832
     22831     22833     22834     22835     22834     22836     22837     22838
     22837     22839     22840     22841     22840     22842     22843     22844
     22843     22845     22846     22847     22846     22848     22849     22850
     22849     22851     22852     22853     22852     22854     22855     22856
     22855     22857     22858     22859     22858     22860     22861     22862
     22861     22863     22864     22865     22864     22866     22867     22868
     22867     22869     22870     22871     22870     22872     22873     22874
     22873     22875     22876     22877     22876     22878     22879     22880
     22879     22881     22882     22883     22882     22884     22885     22886
     22885     22887     22888     22889     22888     22890     22891     22892
     22891     22893     22894     22895     22894     22896     22897     22898
     22897     22899     22900     22901     22900     22902     22903     22904
     22903     22905     22906     22907     22906     22908     22909     22910
     22909     22911     22912     22913     22912     22914     22915     22916
     22915     22917     22918     22919     22918     22920     22921     22922
     22921     22923     22924     22925     22924     22926     22927     22928
     22927     22929     22930     22931     22930     22932     22933     22934
     22933     22935     22936     22937     22936     22938     22939     22940
     22939     22941     22942     22943     22942     22944     22945     22946
     22945     22947     22948     22949     22948     22950     22951     22952
     22951     22953     22954     22955     22954     22956     22957     22958
     22957     22959     22960     22961     22960     22962     22963     22964
     22963     22965     22966     22967     22966     22968     22969     22970
     22969     22971     22972     22973     22972     22974     22975     22976
     22975     22977     22978     22979     22978     22980     22981     22982
     22981     22983     22984     22985     22984     22986     22987     22988
     22987     22989     22990     22991     22990     22992     22993     22994
     22993     22995     22996     22997     22996     22998     22999     23000
     22999     23001     23002     23003     23002     23004     23005     23006
     23005     23007     23008     23009     23008     23010     23011     23012
     23011     23013     23014     23015     23014     23016     23017     23018
     23017     23019     23020     23021     23020     23022     23023     23024
     23023     23025     23026     23027     23026     23028     23029     23030
     23029     23031     23032     23033     23032     23034     23035     23036
     23035     23037     23038     23039     23038     23040     23041     23042
     23041     23043     23044     23045     23044     23046     23047     23048
     23047     23049     23050     23051     23050     23052     23053     23054
     23053     23055     23056     23057     23056     23058     23059     23060
     23059     23061     23062     23063     23062     23064     23065     23066
     23065     23067     23068     23069     23068     23070     23071     23072
     23071     23073     23074     23075     23074     23076     23077     23078
     23077     23079     23080     23081     23080     23082     23083     23084
     23083     23085     23086     23087     23086     23088     23089     23090
     23089     23091     23092     23093     23092     23094     23095     23096
     23095     23097     23098     23099     23098     23100     23101     23102
     23101     23103     23104     23105     23104     23106     23107     23108
     23107     23109     23110     23111     23110     23112     23113     23114
     23113     23115     23116     23117     23116     23118     23119     23120
     23119     23121     23122     23123     23122     23124     23125     23126
     23125     23127     23128     23129     23128     23130     23131     23132
     23131     23133     23134     23135     23134     23136     23137     23138
     23137     23139     23140     23141     23140     23142     23143     23144
     23143     23145     23146     23147     23146     23148     23149     23150
     23149     23151     23152     23153     23152     23154     23155     23156
     23155     23157     23158     23159     23158     23160     23161     23162
     23161     23163     23164     23165     23164     23166     23167     23168
     23167     23169     23170     23171     23170     23172     23173     23174
     23173     23175     23176     23177     23176     23178     23179     23180
     23179     23181     23182     23183     23182     23184     23185     23186
     23185     23187     23188     23189     23188     23190     23191     23192
     23191     23193     23194     23195     23194     23196     23197     23198
     23197     23199     23200     23201     23200     23202     23203     23204
     23203     23205     23206     23207     23206     23208     23209     23210
     23209     23211     23212     23213     23212     23214     23215     23216
     23215     23217     23218     23219     23218     23220     23221     23222
     23221     23223     23224     23225     23224     23226     23227     23228
     23227     23229     23230     23231     23230     23232     23233     23234
     23233     23235     23236     23237     23236     23238     23239     23240
     23239     23241     23242     23243     23242     23244     23245     23246
     23245     23247     23248     23249     23248     23250     23251     23252
     23251     23253     23254     23255     23254     23256     23257     23258
     23257     23259     23260     23261     23260     23262     23263     23264
     23263     23265     23266     23267     23266     23268     23269     23270
     23269     23271     23272     23273     23272     23274     23275     23276
     23275     23277     23278     23279     23278     23280     23281     23282
     23281     23283     23284     23285     23284     23286     23287     23288
     23287     23289     23290     23291     23290     23292     23293     23294
     23293     23295     23296     23297     23296     23298     23299     23300
     23299     23301     23302     23303     23302     23304     23305     23306
     23305     23307     23308     23309     23308     23310     23311     23312
     23311     23313     23314     23315     23314     23316     23317     23318
     23317     23319     23320     23321     23320     23322     23323     23324
     23323     23325     23326     23327     23326     23328     23329     23330
     23329     23331     23332     23333     23332     23334     23335     23336
     23335     23337     23338     23339     23338     23340     23341     23342
     23341     23343     23344     23345     23344     23346     23347     23348
     23347     23349     23350     23351     23350     23352     23353     23354
     23353     23355     23356     23357     23356     23358     23359     23360
     23359     23361     23362     23363     23362     23364     23365     23366
     23365     23367     23368     23369     23368     23370     23371     23372
     23371     23373     23374     23375     23374     23376     23377     23378
     23377     23379     23380     23381     23380     23382     23383     23384
     23383     23385     23386     23387     23386     23388     23389     23390
     23389     23391     23392     23393     23392     23394     23395     23396
     23395     23397     23398     23399     23398     23400     23401     23402
     23401     23403     23404     23405     23404     23406     23407     23408
     23407     23409     23410     23411     23410     23412     23413     23414
     23413     23415     23416     23417     23416     23418     23419     23420
     23419     23421     23422     23423     23422     23424     23425     23426
     23425     23427     23428     23429     23428     23430     23431     23432
     23431     23433     23434     23435     23434     23436     23437     23438
     23437     23439     23440     23441     23440     23442     23443     23444
     23443     23445     23446     23447     23446     23448     23449     23450
     23449     23451     23452     23453     23452     23454     23455     23456
     23455     23457     23458     23459     23458     23460     23461     23462
     23461     23463     23464     23465     23464     23466     23467     23468
     23467     23469     23470     23471     23470     23472     23473     23474
     23473     23475     23476     23477     23476     23478     23479     23480
     23479     23481     23482     23483     23482     23484     23485     23486
     23485     23487     23488     23489     23488     23490     23491     23492
     23491     23493     23494     23495     23494     23496     23497     23498
     23497     23499     23500     23501     23500     23502     23503     23504
     23503     23505     23506     23507     23506     23508     23509     23510
     23509     23511     23512     23513     23512     23514     23515     23516
     23515     23517     23518     23519     23518     23520     23521     23522
     23521     23523     23524     23525     23524     23526     23527     23528
     23527     23529     23530     23531     23530     23532     23533     23534
     23533     23535     23536     23537     23536     23538     23539     23540
     23539     23541     23542     23543     23542     23544     23545     23546
     23545     23547     23548     23549     23548     23550     23551     23552
     23551     23553     23554     23555     23554     23556     23557     23558
     23557     23559     23560     23561     23560     23562     23563     23564
     23563     23565     23566     23567     23566     23568     23569     23570
     23569     23571     23572     23573     23572     23574     23575     23576
     23575     23577     23578     23579     23578     23580     23581     23582
     23581     23583     23584     23585     23584     23586     23587     23588
     23587     23589     23590     23591     23590     23592     23593     23594
     23593     23595     23596     23597     23596     23598     23599     23600
     23599     23601     23602     23603     23602     23604     23605     23606
     23605     23607     23608     23609     23608     23610     23611     23612
     23611     23613     23614     23615     23614     23616     23617     23618
     23617     23619     23620     23621     23620     23622     23623     23624
     23623     23625     23626     23627     23626     23628     23629     23630
     23629     23631     23632     23633     23632     23634     23635     23636
     23635     23637     23638     23639     23638     23640     23641     23642
     23641     23643     23644     23645     23644     23646     23647     23648
     23647     23649     23650     23651     23650     23652     23653     23654
     23653     23655     23656     23657     23656     23658     23659     23660
     23659     23661     23662     23663     23662     23664     23665     23666
     23665     23667     23668     23669     23668     23670     23671     23672
     23671     23673     23674     23675     23674     23676     23677     23678
     23677     23679     23680     23681     23680     23682     23683     23684
     23683     23685     23686     23687     23686     23688     23689     23690
     23689     23691     23692     23693     23692     23694     23695     23696
     23695     23697     23698     23699     23698     23700     23701     23702
     23701     23703     23704     23705     23704     23706     23707     23708
     23707     23709     23710     23711     23710     23712     23713     23714
     23713     23715     23716     23717     23716     23718     23719     23720
     23719     23721     23722     23723     23722     23724     23725     23726
     23725     23727     23728     23729     23728     23730     23731     23732
     23731     23733     23734     23735     23734     23736     23737     23738
     23737     23739     23740     23741     23740     23742     23743     23744
     23743     23745     23746     23747     23746     23748     23749     23750
     23749     23751     23752     23753     23752     23754     23755     23756
     23755     23757     23758     23759     23758     23760     23761     23762
     23761     23763     23764     23765     23764     23766     23767     23768
     23767     23769     23770     23771     23770     23772     23773     23774
     23773     23775     23776     23777     23776     23778     23779     23780
     23779     23781     23782     23783     23782     23784     23785     23786
     23785     23787     23788     23789     23788     23790     23791     23792
     23791     23793     23794     23795     23794     23796     23797     23798
     23797     23799     23800     23801     23800     23802     23803     23804
     23803     23805     23806     23807     23806     23808     23809     23810
     23809     23811     23812     23813     23812     23814     23815     23816
     23815     23817     23818     23819     23818     23820     23821     23822
     23821     23823     23824     23825     23824     23826     23827     23828
     23827     23829     23830     23831     23830     23832     23833     23834
     23833     23835     23836     23837     23836     23838     23839     23840
     23839     23841     23842     23843     23842     23844     23845     23846
     23845     23847     23848     23849     23848     23850     23851     23852
     23851     23853     23854     23855     23854     23856     23857     23858
     23857     23859     23860     23861     23860     23862     23863     23864
     23863     23865     23866     23867     23866     23868     23869     23870
     23869     23871     23872     23873     23872     23874     23875     23876
     23875     23877     23878     23879     23878     23880     23881     23882
     23881     23883     23884     23885     23884     23886     23887     23888
     23887     23889     23890     23891     23890     23892     23893     23894
     23893     23895     23896     23897     23896     23898     23899     23900
     23899     23901     23902     23903     23902     23904     23905     23906
     23905     23907     23908     23909     23908     23910     23911     23912
     23911     23913     23914     23915     23914     23916     23917     23918
     23917     23919     23920     23921     23920     23922     23923     23924
     23923     23925     23926     23927     23926     23928     23929     23930
     23929     23931     23932     23933     23932     23934     23935     23936
     23935     23937     23938     23939     23938     23940     23941     23942
     23941     23943     23944     23945     23944     23946     23947     23948
     23947     23949     23950     23951     23950     23952     23953     23954
     23953     23955     23956     23957     23956     23958     23959     23960
     23959     23961     23962     23963     23962     23964     23965     23966
     23965     23967     23968     23969     23968     23970     23971     23972
     23971     23973     23974     23975     23974     23976     23977     23978
     23977     23979     23980     23981     23980     23982     23983     23984
     23983     23985     23986     23987     23986     23988     23989     23990
     23989     23991     23992     23993     23992     23994     23995     23996
     23995     23997     23998     23999     23998     24000     24001     24002
     24001     24003     24004     24005     24004     24006     24007     24008
     24007     24009     24010     24011     24010     24012     24013     24014
     24013     24015     24016     24017     24016     24018     24019     24020
     24019     24021     24022     24023     24022     24024     24025     24026
     24025     24027     24028     24029     24028     24030     24031     24032
     24031     24033     24034     24035     24034     24036     24037     24038
     24037     24039     24040     24041     24040     24042     24043     24044
     24043     24045     24046     24047     24046     24048     24049     24050
     24049     24051     24052     24053     24052     24054     24055     24056
     24055     24057     24058     24059     24058     24060     24061     24062
     24061     24063     24064     24065     24064     24066     24067     24068
     24067     24069     24070     24071     24070     24072     24073     24074
     24073     24075     24076     24077     24076     24078     24079     24080
     24079     24081     24082     24083     24082     24084     24085     24086
     24085     24087     24088     24089     24088     24090     24091     24092
     24091     24093     24094     24095     24094     24096     24097     24098
     24097     24099     24100     24101     24100     24102     24103     24104
     24103     24105     24106     24107     24106     24108     24109     24110
     24109     24111     24112     24113     24112     24114     24115     24116
     24115     24117     24118     24119     24118     24120     24121     24122
     24121     24123     24124     24125     24124     24126     24127     24128
     24127     24129     24130     24131     24130     24132     24133     24134
     24133     24135     24136     24137     24136     24138     24139     24140
     24139     24141     24142     24143     24142     24144     24145     24146
     24145     24147     24148     24149     24148     24150     24151     24152
     24151     24153     24154     24155     24154     24156     24157     24158
     24157     24159     24160     24161     24160     24162     24163     24164
     24163     24165     24166     24167     24166     24168     24169     24170
     24169     24171     24172     24173     24172     24174     24175     24176
     24175     24177     24178     24179     24178     24180     24181     24182
     24181     24183     24184     24185     24184     24186     24187     24188
     24187     24189     24190     24191     24190     24192     24193     24194
     24193     24195     24196     24197     24196     24198     24199     24200
     24199     24201     24202     24203     24202     24204     24205     24206
     24205     24207     24208     24209     24208     24210     24211     24212
     24211     24213     24214     24215     24214     24216     24217     24218
     24217     24219     24220     24221     24220     24222     24223     24224
     24223     24225     24226     24227     24226     24228     24229     24230
     24229     24231     24232     24233     24232     24234     24235     24236
     24235     24237     24238     24239     24238     24240     24241     24242
     24241     24243     24244     24245     24244     24246     24247     24248
     24247     24249     24250     24251     24250     24252     24253     24254
     24253     24255     24256     24257     24256     24258     24259     24260
     24259     24261     24262     24263     24262     24264     24265     24266
     24265     24267     24268     24269     24268     24270     24271     24272
     24271     24273     24274     24275     24274     24276     24277     24278
     24277     24279     24280     24281     24280     24282     24283     24284
     24283     24285     24286     24287     24286     24288     24289     24290
     24289     24291     24292     24293     24292     24294     24295     24296
     24295     24297     24298     24299     24298     24300     24301     24302
     24301     24303     24304     24305     24304     24306     24307     24308
     24307     24309     24310     24311     24310     24312     24313     24314
     24313     24315     24316     24317     24316     24318     24319     24320
     24319     24321     24322     24323     24322     24324     24325     24326
     24325     24327     24328     24329     24328     24330     24331     24332
     24331     24333     24334     24335     24334     24336     24337     24338
     24337     24339     24340     24341     24340     24342     24343     24344
     24343     24345     24346     24347     24346     24348     24349     24350
     24349     24351     24352     24353     24352     24354     24355     24356
     24355     24357     24358     24359     24358     24360     24361     24362
     24361     24363     24364     24365     24364     24366     24367     24368
     24367     24369     24370     24371     24370     24372     24373     24374
     24373     24375     24376     24377     24376     24378     24379     24380
     24379     24381     24382     24383     24382     24384     24385     24386
     24385     24387     24388     24389     24388     24390     24391     24392
     24391     24393     24394     24395     24394     24396     24397     24398
     24397     24399     24400     24401     24400     24402     24403     24404
     24403     24405     24406     24407     24406     24408     24409     24410
     24409     24411     24412     24413     24412     24414     24415     24416
     24415     24417     24418     24419     24418     24420     24421     24422
     24421     24423     24424     24425     24424     24426     24427     24428
     24427     24429     24430     24431     24430     24432     24433     24434
     24433     24435     24436     24437     24436     24438     24439     24440
     24439     24441     24442     24443     24442     24444     24445     24446
     24445     24447     24448     24449     24448     24450     24451     24452
     24451     24453     24454     24455     24454     24456     24457     24458
     24457     24459     24460     24461     24460     24462     24463     24464
     24463     24465     24466     24467     24466     24468     24469     24470
     24469     24471     24472     24473     24472     24474     24475     24476
     24475     24477     24478     24479     24478     24480     24481     24482
     24481     24483     24484     24485     24484     24486     24487     24488
     24487     24489     24490     24491     24490     24492     24493     24494
     24493     24495     24496     24497     24496     24498     24499     24500
     24499     24501     24502     24503     24502     24504     24505     24506
     24505     24507     24508     24509     24508     24510     24511     24512
     24511     24513     24514     24515     24514     24516     24517     24518
     24517     24519     24520     24521     24520     24522     24523     24524
     24523     24525     24526     24527     24526     24528     24529     24530
     24529     24531     24532     24533     24532     24534     24535     24536
     24535     24537     24538     24539     24538     24540     24541     24542
     24541     24543     24544     24545     24544     24546     24547     24548
     24547     24549     24550     24551     24550     24552     24553     24554
     24553     24555     24556     24557     24556     24558     24559     24560
     24559     24561     24562     24563     24562     24564     24565     24566
     24565     24567     24568     24569     24568     24570     24571     24572
     24571     24573     24574     24575     24574     24576     24577     24578
     24577     24579     24580     24581     24580     24582     24583     24584
     24583     24585     24586     24587     24586     24588     24589     24590
     24589     24591     24592     24593     24592     24594     24595     24596
     24595     24597     24598     24599     24598     24600     24601     24602
     24601     24603     24604     24605     24604     24606     24607     24608
     24607     24609     24610     24611     24610     24612     24613     24614
     24613     24615     24616     24617     24616     24618     24619     24620
     24619     24621     24622     24623     24622     24624     24625     24626
     24625     24627     24628     24629     24628     24630     24631     24632
     24631     24633     24634     24635     24634     24636     24637     24638
     24637     24639     24640     24641     24640     24642     24643     24644
     24643     24645     24646     24647     24646     24648     24649     24650
     24649     24651     24652     24653     24652     24654     24655     24656
     24655     24657     24658     24659     24658     24660     24661     24662
     24661     24663     24664     24665     24664     24666     24667     24668
     24667     24669     24670     24671     24670     24672     24673     24674
     24673     24675     24676     24677     24676     24678     24679     24680
     24679     24681     24682     24683     24682     24684     24685     24686
     24685     24687     24688     24689     24688     24690     24691     24692
     24691     24693     24694     24695     24694     24696     24697     24698
     24697     24699     24700     24701     24700     24702     24703     24704
     24703     24705     24706     24707     24706     24708     24709     24710
     24709     24711     24712     24713     24712     24714     24715     24716
     24715     24717     24718     24719     24718     24720     24721     24722
     24721     24723     24724     24725     24724     24726     24727     24728
     24727     24729     24730     24731     24730     24732     24733     24734
     24733     24735     24736     24737     24736     24738     24739     24740
     24739     24741     24742     24743     24742     24744     24745     24746
     24745     24747     24748     24749     24748     24750     24751     24752
     24751     24753     24754     24755     24754     24756     24757     24758
     24757     24759     24760     24761     24760     24762     24763     24764
     24763     24765     24766     24767     24766     24768     24769     24770
     24769     24771     24772     24773     24772     24774     24775     24776
     24775     24777     24778     24779     24778     24780     24781     24782
     24781     24783     24784     24785     24784     24786     24787     24788
     24787     24789     24790     24791     24790     24792     24793     24794
     24793     24795     24796     24797     24796     24798     24799     24800
     24799     24801     24802     24803     24802     24804     24805     24806
     24805     24807     24808     24809     24808     24810     24811     24812
     24811     24813     24814     24815     24814     24816     24817     24818
     24817     24819     24820     24821     24820     24822     24823     24824
     24823     24825     24826     24827     24826     24828     24829     24830
     24829     24831     24832     24833     24832     24834     24835     24836
     24835     24837     24838     24839     24838     24840     24841     24842
     24841     24843     24844     24845     24844     24846     24847     24848
     24847     24849     24850     24851     24850     24852     24853     24854
     24853     24855     24856     24857     24856     24858     24859     24860
     24859     24861     24862     24863     24862     24864     24865     24866
     24865     24867     24868     24869     24868     24870     24871     24872
     24871     24873     24874     24875     24874     24876     24877     24878
     24877     24879     24880     24881     24880     24882     24883     24884
     24883     24885     24886     24887     24886     24888     24889     24890
     24889     24891     24892     24893     24892     24894     24895     24896
     24895     24897     24898     24899     24898     24900     24901     24902
     24901     24903     24904     24905     24904     24906     24907     24908
     24907     24909     24910     24911     24910     24912     24913     24914
     24913     24915     24916     24917     24916     24918     24919     24920
     24919     24921     24922     24923     24922     24924     24925     24926
     24925     24927     24928     24929     24928     24930     24931     24932
     24931     24933     24934     24935     24934     24936     24937     24938
     24937     24939     24940     24941     24940     24942     24943     24944
     24943     24945     24946     24947     24946     24948     24949     24950
     24949     24951     24952     24953     24952     24954     24955     24956
     24955     24957     24958     24959     24958     24960     24961     24962
     24961     24963     24964     24965     24964     24966     24967     24968
     24967     24969     24970     24971     24970     24972     24973     24974
     24973     24975     24976     24977     24976     24978     24979     24980
     24979     24981     24982     24983     24982     24984     24985     24986
     24985     24987     24988     24989     24988     24990     24991     24992
     24991     24993     24994     24995     24994     24996     24997     24998
     24997     24999     25000     25001     25000     25002     25003     25004
     25003     25005     25006     25007     25006     25008     25009     25010
     25009     25011     25012     25013     25012     25014     25015     25016
     25015     25017     25018     25019     25018     25020     25021     25022
     25021     25023     25024     25025     25024     25026     25027     25028
     25027     25029     25030     25031     25030     25032     25033     25034
     25033     25035     25036     25037     25036     25038     25039     25040
     25039     25041     25042     25043     25042     25044     25045     25046
     25045     25047     25048     25049     25048     25050     25051     25052
     25051     25053     25054     25055     25054     25056     25057     25058
     25057     25059     25060     25061     25060     25062     25063     25064
     25063     25065     25066     25067     25066     25068     25069     25070
     25069     25071     25072     25073     25072     25074     25075     25076
     25075     25077     25078     25079     25078     25080     25081     25082
     25081     25083     25084     25085     25084     25086     25087     25088
     25087     25089     25090     25091     25090     25092     25093     25094
     25093     25095     25096     25097     25096     25098     25099     25100
     25099     25101     25102     25103     25102     25104     25105     25106
     25105     25107     25108     25109     25108     25110     25111     25112
     25111     25113     25114     25115     25114     25116     25117     25118
     25117     25119     25120     25121     25120     25122     25123     25124
     25123     25125     25126     25127     25126     25128     25129     25130
     25129     25131     25132     25133     25132     25134     25135     25136
     25135     25137     25138     25139     25138     25140     25141     25142
     25141     25143     25144     25145     25144     25146     25147     25148
     25147     25149     25150     25151     25150     25152     25153     25154
     25153     25155     25156     25157     25156     25158     25159     25160
     25159     25161     25162     25163     25162     25164     25165     25166
     25165     25167     25168     25169     25168     25170     25171     25172
     25171     25173     25174     25175     25174     25176     25177     25178
     25177     25179     25180     25181     25180     25182     25183     25184
     25183     25185     25186     25187     25186     25188     25189     25190
     25189     25191     25192     25193     25192     25194     25195     25196
     25195     25197     25198     25199     25198     25200     25201     25202
     25201     25203     25204     25205     25204     25206     25207     25208
     25207     25209     25210     25211     25210     25212     25213     25214
     25213     25215     25216     25217     25216     25218     25219     25220
     25219     25221     25222     25223     25222     25224     25225     25226
     25225     25227     25228     25229     25228     25230     25231     25232
     25231     25233     25234     25235     25234     25236     25237     25238
     25237     25239     25240     25241     25240     25242     25243     25244
     25243     25245     25246     25247     25246     25248     25249     25250
     25249     25251     25252     25253     25252     25254     25255     25256
     25255     25257     25258     25259     25258     25260     25261     25262
     25261     25263     25264     25265     25264     25266     25267     25268
     25267     25269     25270     25271     25270     25272     25273     25274
     25273     25275     25276     25277     25276     25278     25279     25280
     25279     25281     25282     25283     25282     25284     25285     25286
     25285     25287     25288     25289     25288     25290     25291     25292
     25291     25293     25294     25295     25294     25296     25297     25298
     25297     25299     25300     25301     25300     25302     25303     25304
     25303     25305     25306     25307     25306     25308     25309     25310
     25309     25311     25312     25313     25312     25314     25315     25316
     25315     25317     25318     25319     25318     25320     25321     25322
     25321     25323     25324     25325     25324     25326     25327     25328
     25327     25329     25330     25331     25330     25332     25333     25334
     25333     25335     25336     25337     25336     25338     25339     25340
     25339     25341     25342     25343     25342     25344     25345     25346
     25345     25347     25348     25349     25348     25350     25351     25352
     25351     25353     25354     25355     25354     25356     25357     25358
     25357     25359     25360     25361     25360     25362     25363     25364
     25363     25365     25366     25367     25366     25368     25369     25370
     25369     25371     25372     25373     25372     25374     25375     25376
     25375     25377     25378     25379     25378     25380     25381     25382
     25381     25383     25384     25385     25384     25386     25387     25388
     25387     25389     25390     25391     25390     25392     25393     25394
     25393     25395     25396     25397     25396     25398     25399     25400
     25399     25401     25402     25403     25402     25404     25405     25406
     25405     25407     25408     25409     25408     25410     25411     25412
     25411     25413     25414     25415     25414     25416     25417     25418
     25417     25419     25420     25421     25420     25422     25423     25424
     25423     25425     25426     25427     25426     25428     25429     25430
     25429     25431     25432     25433     25432     25434     25435     25436
     25435     25437     25438     25439     25438     25440     25441     25442
     25441     25443     25444     25445     25444     25446     25447     25448
     25447     25449     25450     25451     25450     25452     25453     25454
     25453     25455     25456     25457     25456     25458     25459     25460
     25459     25461     25462     25463     25462     25464     25465     25466
     25465     25467     25468     25469     25468     25470     25471     25472
     25471     25473     25474     25475     25474     25476     25477     25478
     25477     25479     25480     25481     25480     25482     25483     25484
     25483     25485     25486     25487     25486     25488     25489     25490
     25489     25491     25492     25493     25492     25494     25495     25496
     25495     25497     25498     25499     25498     25500     25501     25502
     25501     25503     25504     25505     25504     25506     25507     25508
     25507     25509     25510     25511     25510     25512     25513     25514
     25513     25515     25516     25517     25516     25518     25519     25520
     25519     25521     25522     25523     25522     25524     25525     25526
     25525     25527     25528     25529     25528     25530     25531     25532
     25531     25533     25534     25535     25534     25536     25537     25538
     25537     25539     25540     25541     25540     25542     25543     25544
     25543     25545     25546     25547     25546     25548     25549     25550
     25549     25551     25552     25553     25552     25554     25555     25556
     25555     25557     25558     25559     25558     25560     25561     25562
     25561     25563     25564     25565     25564     25566     25567     25568
     25567     25569     25570     25571     25570     25572     25573     25574
     25573     25575     25576     25577     25576     25578     25579     25580
     25579     25581     25582     25583     25582     25584     25585     25586
     25585     25587     25588     25589     25588     25590     25591     25592
     25591     25593     25594     25595     25594     25596     25597     25598
     25597     25599     25600     25601     25600     25602     25603     25604
     25603     25605     25606     25607     25606     25608     25609     25610
     25609     25611     25612     25613     25612     25614     25615     25616
     25615     25617     25618     25619     25618     25620     25621     25622
     25621     25623     25624     25625     25624     25626     25627     25628
     25627     25629     25630     25631     25630     25632     25633     25634
     25633     25635     25636     25637     25636     25638     25639     25640
     25639     25641     25642     25643     25642     25644     25645     25646
     25645     25647     25648     25649     25648     25650     25651     25652
     25651     25653     25654     25655     25654     25656     25657     25658
     25657     25659     25660     25661     25660     25662     25663     25664
     25663     25665     25666     25667     25666     25668     25669     25670
     25669     25671     25672     25673     25672     25674     25675     25676
     25675     25677     25678     25679     25678     25680     25681     25682
     25681     25683     25684     25685     25684     25686     25687     25688
     25687     25689     25690     25691     25690     25692     25693     25694
     25693     25695     25696     25697     25696     25698     25699     25700
     25699     25701     25702     25703     25702     25704     25705     25706
     25705     25707     25708     25709     25708     25710     25711     25712
     25711     25713     25714     25715     25714     25716     25717     25718
     25717     25719     25720     25721     25720     25722     25723     25724
     25723     25725     25726     25727     25726     25728     25729     25730
     25729     25731     25732     25733     25732     25734     25735     25736
     25735     25737     25738     25739     25738     25740     25741     25742
     25741     25743     25744     25745     25744     25746     25747     25748
     25747     25749     25750     25751     25750     25752     25753     25754
     25753     25755     25756     25757     25756     25758     25759     25760
     25759     25761     25762     25763     25762     25764     25765     25766
     25765     25767     25768     25769     25768     25770     25771     25772
     25771     25773     25774     25775     25774     25776     25777     25778
     25777     25779     25780     25781     25780     25782     25783     25784
     25783     25785     25786     25787     25786     25788     25789     25790
     25789     25791     25792     25793     25792     25794     25795     25796
     25795     25797     25798     25799     25798     25800     25801     25802
     25801     25803     25804     25805     25804     25806     25807     25808
     25807     25809     25810     25811     25810     25812     25813     25814
     25813     25815     25816     25817     25816     25818     25819     25820
     25819     25821     25822     25823     25822     25824     25825     25826
     25825     25827     25828     25829     25828     25830     25831     25832
     25831     25833     25834     25835     25834     25836     25837     25838
     25837     25839     25840     25841     25840     25842     25843     25844
     25843     25845     25846     25847     25846     25848     25849     25850
     25849     25851     25852     25853     25852     25854     25855     25856
     25855     25857     25858     25859     25858     25860     25861     25862
     25861     25863     25864     25865     25864     25866     25867     25868
     25867     25869     25870     25871     25870     25872     25873     25874
     25873     25875     25876     25877     25876     25878     25879     25880
     25879     25881     25882     25883     25882     25884     25885     25886
     25885     25887     25888     25889     25888     25890     25891     25892
     25891     25893     25894     25895     25894     25896     25897     25898
     25897     25899     25900     25901     25900     25902     25903     25904
     25903     25905     25906     25907     25906     25908     25909     25910
     25909     25911     25912     25913     25912     25914     25915     25916
     25915     25917     25918     25919     25918     25920     25921     25922
     25921     25923     25924     25925     25924     25926     25927     25928
     25927     25929     25930     25931     25930     25932     25933     25934
     25933     25935     25936     25937     25936     25938     25939     25940
     25939     25941     25942     25943     25942     25944     25945     25946
     25945     25947     25948     25949     25948     25950     25951     25952
     25951     25953     25954     25955     25954     25956     25957     25958
     25957     25959     25960     25961     25960     25962     25963     25964
     25963     25965     25966     25967     25966     25968     25969     25970
     25969     25971     25972     25973     25972     25974     25975     25976
     25975     25977     25978     25979     25978     25980     25981     25982
     25981     25983     25984     25985     25984     25986     25987     25988
     25987     25989     25990     25991     25990     25992     25993     25994
     25993     25995     25996     25997     25996     25998     25999     26000
     25999     26001     26002     26003     26002     26004     26005     26006
     26005     26007     26008     26009     26008     26010     26011     26012
     26011     26013     26014     26015     26014     26016     26017     26018
     26017     26019     26020     26021     26020     26022     26023     26024
     26023     26025     26026     26027     26026     26028     26029     26030
     26029     26031     26032     26033     26032     26034     26035     26036
     26035     26037     26038     26039     26038     26040     26041     26042
     26041     26043     26044     26045     26044     26046     26047     26048
     26047     26049     26050     26051     26050     26052     26053     26054
     26053     26055     26056     26057     26056     26058     26059     26060
     26059     26061     26062     26063     26062     26064     26065     26066
     26065     26067     26068     26069     26068     26070     26071     26072
     26071     26073     26074     26075     26074     26076     26077     26078
     26077     26079     26080     26081     26080     26082     26083     26084
     26083     26085     26086     26087     26086     26088     26089     26090
     26089     26091     26092     26093     26092     26094     26095     26096
     26095     26097     26098     26099     26098     26100     26101     26102
     26101     26103     26104     26105     26104     26106     26107     26108
     26107     26109     26110     26111     26110     26112     26113     26114
     26113     26115     26116     26117     26116     26118     26119     26120
     26119     26121     26122     26123     26122     26124     26125     26126
     26125     26127     26128     26129     26128     26130     26131     26132
     26131     26133     26134     26135     26134     26136     26137     26138
     26137     26139     26140     26141     26140     26142     26143     26144
     26143     26145     26146     26147     26146     26148     26149     26150
     26149     26151     26152     26153     26152     26154     26155     26156
     26155     26157     26158     26159     26158     26160     26161     26162
     26161     26163     26164     26165     26164     26166     26167     26168
     26167     26169     26170     26171     26170     26172     26173     26174
     26173     26175     26176     26177     26176     26178     26179     26180
     26179     26181     26182     26183     26182     26184     26185     26186
     26185     26187     26188     26189     26188     26190     26191     26192
     26191     26193     26194     26195     26194     26196     26197     26198
     26197     26199     26200     26201     26200     26202     26203     26204
     26203     26205     26206     26207     26206     26208     26209     26210
     26209     26211     26212     26213     26212     26214     26215     26216
     26215     26217     26218     26219     26218     26220     26221     26222
     26221     26223     26224     26225     26224     26226     26227     26228
     26227     26229     26230     26231     26230     26232     26233     26234
     26233     26235     26236     26237     26236     26238     26239     26240
     26239     26241     26242     26243     26242     26244     26245     26246
     26245     26247     26248     26249     26248     26250     26251     26252
     26251     26253     26254     26255     26254     26256     26257     26258
     26257     26259     26260     26261     26260     26262     26263     26264
     26263     26265     26266     26267     26266     26268     26269     26270
     26269     26271     26272     26273     26272     26274     26275     26276
     26275     26277     26278     26279     26278     26280     26281     26282
     26281     26283     26284     26285     26284     26286     26287     26288
     26287     26289     26290     26291     26290     26292     26293     26294
     26293     26295     26296     26297     26296     26298     26299     26300
     26299     26301     26302     26303     26302     26304     26305     26306
     26305     26307     26308     26309     26308     26310     26311     26312
     26311     26313     26314     26315     26314     26316     26317     26318
     26317     26319     26320     26321     26320     26322     26323     26324
     26323     26325     26326     26327     26326     26328     26329     26330
     26329     26331     26332     26333     26332     26334     26335     26336
     26335     26337     26338     26339     26338     26340     26341     26342
     26341     26343     26344     26345     26344     26346     26347     26348
     26347     26349     26350     26351     26350     26352     26353     26354
     26353     26355     26356     26357     26356     26358     26359     26360
     26359     26361     26362     26363     26362     26364     26365     26366
     26365     26367     26368     26369     26368     26370     26371     26372
     26371     26373     26374     26375     26374     26376     26377     26378
     26377     26379     26380     26381     26380     26382     26383     26384
     26383     26385     26386     26387     26386     26388     26389     26390
     26389     26391     26392     26393     26392     26394     26395     26396
     26395     26397     26398     26399     26398     26400     26401     26402
     26401     26403     26404     26405     26404     26406     26407     26408
     26407     26409     26410     26411     26410     26412     26413     26414
     26413     26415     26416     26417     26416     26418     26419     26420
     26419     26421     26422     26423     26422     26424     26425     26426
     26425     26427     26428     26429     26428     26430     26431     26432
     26431     26433     26434     26435     26434     26436     26437     26438
     26437     26439     26440     26441     26440     26442     26443     26444
     26443     26445     26446     26447     26446     26448     26449     26450
     26449     26451     26452     26453     26452     26454     26455     26456
     26455     26457     26458     26459     26458     26460     26461     26462
     26461     26463     26464     26465     26464     26466     26467     26468
     26467     26469     26470     26471     26470     26472     26473     26474
     26473     26475     26476     26477     26476     26478     26479     26480
     26479     26481     26482     26483     26482     26484     26485     26486
     26485     26487     26488     26489     26488     26490     26491     26492
     26491     26493     26494     26495     26494     26496     26497     26498
     26497     26499     26500     26501     26500     26502     26503     26504
     26503     26505     26506     26507     26506     26508     26509     26510
     26509     26511     26512     26513     26512     26514     26515     26516
     26515     26517     26518     26519     26518     26520     26521     26522
     26521     26523     26524     26525     26524     26526     26527     26528
     26527     26529     26530     26531     26530     26532     26533     26534
     26533     26535     26536     26537     26536     26538     26539     26540
     26539     26541     26542     26543     26542     26544     26545     26546
     26545     26547     26548     26549     26548     26550     26551     26552
     26551     26553     26554     26555     26554     26556     26557     26558
     26557     26559     26560     26561     26560     26562     26563     26564
     26563     26565     26566     26567     26566     26568     26569     26570
     26569     26571     26572     26573     26572     26574     26575     26576
     26575     26577     26578     26579     26578     26580     26581     26582
     26581     26583     26584     26585     26584     26586     26587     26588
     26587     26589     26590     26591     26590     26592     26593     26594
     26593     26595     26596     26597     26596     26598     26599     26600
     26599     26601     26602     26603     26602     26604     26605     26606
     26605     26607     26608     26609     26608     26610     26611     26612
     26611     26613     26614     26615     26614     26616     26617     26618
     26617     26619     26620     26621     26620     26622     26623     26624
     26623     26625     26626     26627     26626     26628     26629     26630
     26629     26631     26632     26633     26632     26634     26635     26636
     26635     26637     26638     26639     26638     26640     26641     26642
     26641     26643     26644     26645     26644     26646     26647     26648
     26647     26649     26650     26651     26650     26652     26653     26654
     26653     26655     26656     26657     26656     26658     26659     26660
     26659     26661     26662     26663     26662     26664     26665     26666
     26665     26667     26668     26669     26668     26670     26671     26672
     26671     26673     26674     26675     26674     26676     26677     26678
     26677     26679     26680     26681     26680     26682     26683     26684
     26683     26685     26686     26687     26686     26688     26689     26690
     26689     26691     26692     26693     26692     26694     26695     26696
     26695     26697     26698     26699     26698     26700     26701     26702
     26701     26703     26704     26705     26704     26706     26707     26708
     26707     26709     26710     26711     26710     26712     26713     26714
     26713     26715     26716     26717     26716     26718     26719     26720
     26719     26721     26722     26723     26722     26724     26725     26726
     26725     26727     26728     26729     26728     26730     26731     26732
     26731     26733     26734     26735     26734     26736     26737     26738
     26737     26739     26740     26741     26740     26742     26743     26744
     26743     26745     26746     26747     26746     26748     26749     26750
     26749     26751     26752     26753     26752     26754     26755     26756
     26755     26757     26758     26759     26758     26760     26761     26762
     26761     26763     26764     26765     26764     26766     26767     26768
     26767     26769     26770     26771     26770     26772     26773     26774
     26773     26775     26776     26777     26776     26778     26779     26780
     26779     26781     26782     26783     26782     26784     26785     26786
     26785     26787     26788     26789     26788     26790     26791     26792
     26791     26793     26794     26795     26794     26796     26797     26798
     26797     26799     26800     26801     26800     26802     26803     26804
     26803     26805     26806     26807     26806     26808     26809     26810
     26809     26811     26812     26813     26812     26814     26815     26816
     26815     26817     26818     26819     26818     26820     26821     26822
     26821     26823     26824     26825     26824     26826     26827     26828
     26827     26829     26830     26831     26830     26832     26833     26834
     26833     26835     26836     26837     26836     26838     26839     26840
     26839     26841     26842     26843     26842     26844     26845     26846
     26845     26847     26848     26849     26848     26850     26851     26852
     26851     26853     26854     26855     26854     26856     26857     26858
     26857     26859     26860     26861     26860     26862     26863     26864
     26863     26865     26866     26867     26866     26868     26869     26870
     26869     26871     26872     26873     26872     26874     26875     26876
     26875     26877     26878     26879     26878     26880     26881     26882
     26881     26883     26884     26885     26884     26886     26887     26888
     26887     26889     26890     26891     26890     26892     26893     26894
     26893     26895     26896     26897     26896     26898     26899     26900
     26899     26901     26902     26903     26902     26904     26905     26906
     26905     26907     26908     26909     26908     26910     26911     26912
     26911     26913     26914     26915     26914     26916     26917     26918
     26917     26919     26920     26921     26920     26922     26923     26924
     26923     26925     26926     26927     26926     26928     26929     26930
     26929     26931     26932     26933     26932     26934     26935     26936
     26935     26937     26938     26939     26938     26940     26941     26942
     26941     26943     26944     26945     26944     26946     26947     26948
     26947     26949     26950     26951     26950     26952     26953     26954
     26953     26955     26956     26957     26956     26958     26959     26960
     26959     26961     26962     26963     26962     26964     26965     26966
     26965     26967     26968     26969     26968     26970     26971     26972
     26971     26973     26974     26975     26974     26976     26977     26978
     26977     26979     26980     26981     26980     26982     26983     26984
     26983     26985     26986     26987     26986     26988     26989     26990
     26989     26991     26992     26993     26992     26994     26995     26996
     26995     26997     26998     26999     26998     27000     27001     27002
     27001     27003     27004     27005     27004     27006     27007     27008
     27007     27009     27010     27011     27010     27012     27013     27014
     27013     27015     27016     27017     27016     27018     27019     27020
     27019     27021     27022     27023     27022     27024     27025     27026
     27025     27027     27028     27029     27028     27030     27031     27032
     27031     27033     27034     27035     27034     27036     27037     27038
     27037     27039     27040     27041     27040     27042     27043     27044
     27043     27045     27046     27047     27046     27048     27049     27050
     27049     27051     27052     27053     27052     27054     27055     27056
     27055     27057     27058     27059     27058     27060     27061     27062
     27061     27063     27064     27065     27064     27066     27067     27068
     27067     27069     27070     27071     27070     27072     27073     27074
     27073     27075     27076     27077     27076     27078     27079     27080
     27079     27081     27082     27083     27082     27084     27085     27086
     27085     27087     27088     27089     27088     27090     27091     27092
     27091     27093     27094     27095     27094     27096     27097     27098
     27097     27099     27100     27101     27100     27102     27103     27104
     27103     27105     27106     27107     27106     27108     27109     27110
     27109     27111     27112     27113     27112     27114     27115     27116
     27115     27117     27118     27119     27118     27120     27121     27122
     27121     27123     27124     27125     27124     27126     27127     27128
     27127     27129     27130     27131     27130     27132     27133     27134
     27133     27135     27136     27137     27136     27138     27139     27140
     27139     27141     27142     27143     27142     27144     27145     27146
     27145     27147     27148     27149     27148     27150     27151     27152
     27151     27153     27154     27155     27154     27156     27157     27158
     27157     27159     27160     27161     27160     27162     27163     27164
     27163     27165     27166     27167     27166     27168     27169     27170
     27169     27171     27172     27173     27172     27174     27175     27176
     27175     27177     27178     27179     27178     27180     27181     27182
     27181     27183     27184     27185     27184     27186     27187     27188
     27187     27189     27190     27191     27190     27192     27193     27194
     27193     27195     27196     27197     27196     27198     27199     27200
     27199     27201     27202     27203     27202     27204     27205     27206
     27205     27207     27208     27209     27208     27210     27211     27212
     27211     27213     27214     27215     27214     27216     27217     27218
     27217     27219     27220     27221     27220     27222     27223     27224
     27223     27225     27226     27227     27226     27228     27229     27230
     27229     27231     27232     27233     27232     27234     27235     27236
     27235     27237     27238     27239     27238     27240     27241     27242
     27241     27243     27244     27245     27244     27246     27247     27248
     27247     27249     27250     27251     27250     27252     27253     27254
     27253     27255     27256     27257     27256     27258     27259     27260
     27259     27261     27262     27263     27262     27264     27265     27266
     27265     27267     27268     27269     27268     27270     27271     27272
     27271     27273     27274     27275     27274     27276     27277     27278
     27277     27279     27280     27281     27280     27282     27283     27284
     27283     27285     27286     27287     27286     27288     27289     27290
     27289     27291     27292     27293     27292     27294     27295     27296
     27295     27297     27298     27299     27298     27300     27301     27302
     27301     27303     27304     27305     27304     27306     27307     27308
     27307     27309     27310     27311     27310     27312     27313     27314
     27313     27315     27316     27317     27316     27318     27319     27320
     27319     27321     27322     27323     27322     27324     27325     27326
     27325     27327     27328     27329     27328     27330     27331     27332
     27331     27333     27334     27335     27334     27336     27337     27338
     27337     27339     27340     27341     27340     27342     27343     27344
     27343     27345     27346     27347     27346     27348     27349     27350
     27349     27351     27352     27353     27352     27354     27355     27356
     27355     27357     27358     27359     27358     27360     27361     27362
     27361     27363     27364     27365     27364     27366     27367     27368
     27367     27369     27370     27371     27370     27372     27373     27374
     27373     27375     27376     27377     27376     27378     27379     27380
     27379     27381     27382     27383     27382     27384     27385     27386
     27385     27387     27388     27389     27388     27390     27391     27392
     27391     27393     27394     27395     27394     27396     27397     27398
     27397     27399     27400     27401     27400     27402     27403     27404
     27403     27405     27406     27407     27406     27408     27409     27410
     27409     27411     27412     27413     27412     27414     27415     27416
     27415     27417     27418     27419     27418     27420     27421     27422
     27421     27423     27424     27425     27424     27426     27427     27428
     27427     27429     27430     27431     27430     27432     27433     27434
     27433     27435     27436     27437     27436     27438     27439     27440
     27439     27441     27442     27443     27442     27444     27445     27446
     27445     27447     27448     27449     27448     27450     27451     27452
     27451     27453     27454     27455     27454     27456     27457     27458
     27457     27459     27460     27461     27460     27462     27463     27464
     27463     27465     27466     27467     27466     27468     27469     27470
     27469     27471     27472     27473     27472     27474     27475     27476
     27475     27477     27478     27479     27478     27480     27481     27482
     27481     27483     27484     27485     27484     27486     27487     27488
     27487     27489     27490     27491     27490     27492     27493     27494
     27493     27495     27496     27497     27496     27498     27499     27500
     27499     27501     27502     27503     27502     27504     27505     27506
     27505     27507     27508     27509     27508     27510     27511     27512
     27511     27513     27514     27515     27514     27516     27517     27518
     27517     27519     27520     27521     27520     27522     27523     27524
     27523     27525     27526     27527     27526     27528     27529     27530
     27529     27531     27532     27533     27532     27534     27535     27536
     27535     27537     27538     27539     27538     27540     27541     27542
     27541     27543     27544     27545     27544     27546     27547     27548
     27547     27549     27550     27551     27550     27552     27553     27554
     27553     27555     27556     27557     27556     27558     27559     27560
     27559     27561     27562     27563     27562     27564     27565     27566
     27565     27567     27568     27569     27568     27570     27571     27572
     27571     27573     27574     27575     27574     27576     27577     27578
     27577     27579     27580     27581     27580     27582     27583     27584
     27583     27585     27586     27587     27586     27588     27589     27590
     27589     27591     27592     27593     27592     27594     27595     27596
     27595     27597     27598     27599     27598     27600     27601     27602
     27601     27603     27604     27605     27604     27606     27607     27608
     27607     27609     27610     27611     27610     27612     27613     27614
     27613     27615     27616     27617     27616     27618     27619     27620
     27619     27621     27622     27623     27622     27624     27625     27626
     27625     27627     27628     27629     27628     27630     27631     27632
     27631     27633     27634     27635     27634     27636     27637     27638
     27637     27639     27640     27641     27640     27642     27643     27644
     27643     27645     27646     27647     27646     27648     27649     27650
     27649     27651     27652     27653     27652     27654     27655     27656
     27655     27657     27658     27659     27658     27660     27661     27662
     27661     27663     27664     27665     27664     27666     27667     27668
     27667     27669     27670     27671     27670     27672     27673     27674
     27673     27675     27676     27677     27676     27678     27679     27680
     27679     27681     27682     27683     27682     27684     27685     27686
     27685     27687     27688     27689     27688     27690     27691     27692
     27691     27693     27694     27695     27694     27696     27697     27698
     27697     27699     27700     27701     27700     27702     27703     27704
     27703     27705     27706     27707     27706     27708     27709     27710
     27709     27711     27712     27713     27712     27714     27715     27716
     27715     27717     27718     27719     27718     27720     27721     27722
     27721     27723     27724     27725     27724     27726     27727     27728
     27727     27729     27730     27731     27730     27732     27733     27734
     27733     27735     27736     27737     27736     27738     27739     27740
     27739     27741     27742     27743     27742     27744     27745     27746
     27745     27747     27748     27749     27748     27750     27751     27752
     27751     27753     27754     27755     27754     27756     27757     27758
     27757     27759     27760     27761     27760     27762     27763     27764
     27763     27765     27766     27767     27766     27768     27769     27770
     27769     27771     27772     27773     27772     27774     27775     27776
     27775     27777     27778     27779     27778     27780     27781     27782
     27781     27783     27784     27785     27784     27786     27787     27788
     27787     27789     27790     27791     27790     27792     27793     27794
     27793     27795     27796     27797     27796     27798     27799     27800
     27799     27801     27802     27803     27802     27804     27805     27806
     27805     27807     27808     27809     27808     27810     27811     27812
     27811     27813     27814     27815     27814     27816     27817     27818
     27817     27819     27820     27821     27820     27822     27823     27824
     27823     27825     27826     27827     27826     27828     27829     27830
     27829     27831     27832     27833     27832     27834     27835     27836
     27835     27837     27838     27839     27838     27840     27841     27842
     27841     27843     27844     27845     27844     27846     27847     27848
     27847     27849     27850     27851     27850     27852     27853     27854
     27853     27855     27856     27857     27856     27858     27859     27860
     27859     27861     27862     27863     27862     27864     27865     27866
     27865     27867     27868     27869     27868     27870     27871     27872
     27871     27873     27874     27875     27874     27876     27877     27878
     27877     27879     27880     27881     27880     27882     27883     27884
     27883     27885     27886     27887     27886     27888     27889     27890
     27889     27891     27892     27893     27892     27894     27895     27896
     27895     27897     27898     27899     27898     27900     27901     27902
     27901     27903     27904     27905     27904     27906     27907     27908
     27907     27909     27910     27911     27910     27912     27913     27914
     27913     27915     27916     27917     27916     27918     27919     27920
     27919     27921     27922     27923     27922     27924     27925     27926
     27925     27927     27928     27929     27928     27930     27931     27932
     27931     27933     27934     27935     27934     27936     27937     27938
     27937     27939     27940     27941     27940     27942     27943     27944
     27943     27945     27946     27947     27946     27948     27949     27950
     27949     27951     27952     27953     27952     27954     27955     27956
     27955     27957     27958     27959     27958     27960     27961     27962
     27961     27963     27964     27965     27964     27966     27967     27968
     27967     27969     27970     27971     27970     27972     27973     27974
     27973     27975     27976     27977     27976     27978     27979     27980
     27979     27981     27982     27983     27982     27984     27985     27986
     27985     27987     27988     27989     27988     27990     27991     27992
     27991     27993     27994     27995     27994     27996     27997     27998
     27997     27999     28000     28001     28000     28002     28003     28004
     28003     28005     28006     28007     28006     28008     28009     28010
     28009     28011     28012     28013     28012     28014     28015     28016
     28015     28017     28018     28019     28018     28020     28021     28022
     28021     28023     28024     28025     28024     28026     28027     28028
     28027     28029     28030     28031     28030     28032     28033     28034
     28033     28035     28036     28037     28036     28038     28039     28040
     28039     28041     28042     28043     28042     28044     28045     28046
     28045     28047     28048     28049     28048     28050     28051     28052
     28051     28053     28054     28055     28054     28056     28057     28058
     28057     28059     28060     28061     28060     28062     28063     28064
     28063     28065     28066     28067     28066     28068     28069     28070
     28069     28071     28072     28073     28072     28074     28075     28076
     28075     28077     28078     28079     28078     28080     28081     28082
     28081     28083     28084     28085     28084     28086     28087     28088
     28087     28089     28090     28091     28090     28092     28093     28094
     28093     28095     28096     28097     28096     28098     28099     28100
     28099     28101     28102     28103     28102     28104     28105     28106
     28105     28107     28108     28109     28108     28110     28111     28112
     28111     28113     28114     28115     28114     28116     28117     28118
     28117     28119     28120     28121     28120     28122     28123     28124
     28123     28125     28126     28127     28126     28128     28129     28130
     28129     28131     28132     28133     28132     28134     28135     28136
     28135     28137     28138     28139     28138     28140     28141     28142
     28141     28143     28144     28145     28144     28146     28147     28148
     28147     28149     28150     28151     28150     28152     28153     28154
     28153     28155     28156     28157     28156     28158     28159     28160
     28159     28161     28162     28163     28162     28164     28165     28166
     28165     28167     28168     28169     28168     28170     28171     28172
     28171     28173     28174     28175     28174     28176     28177     28178
     28177     28179     28180     28181     28180     28182     28183     28184
     28183     28185     28186     28187     28186     28188     28189     28190
     28189     28191     28192     28193     28192     28194     28195     28196
     28195     28197     28198     28199     28198     28200     28201     28202
     28201     28203     28204     28205     28204     28206     28207     28208
     28207     28209     28210     28211     28210     28212     28213     28214
     28213     28215     28216     28217     28216     28218     28219     28220
     28219     28221     28222     28223     28222     28224     28225     28226
     28225     28227     28228     28229     28228     28230     28231     28232
     28231     28233     28234     28235     28234     28236     28237     28238
     28237     28239     28240     28241     28240     28242     28243     28244
     28243     28245     28246     28247     28246     28248     28249     28250
     28249     28251     28252     28253     28252     28254     28255     28256
     28255     28257     28258     28259     28258     28260     28261     28262
     28261     28263     28264     28265     28264     28266     28267     28268
     28267     28269     28270     28271     28270     28272     28273     28274
     28273     28275     28276     28277     28276     28278     28279     28280
     28279     28281     28282     28283     28282     28284     28285     28286
     28285     28287     28288     28289     28288     28290     28291     28292
     28291     28293     28294     28295     28294     28296     28297     28298
     28297     28299     28300     28301     28300     28302     28303     28304
     28303     28305     28306     28307     28306     28308     28309     28310
     28309     28311     28312     28313     28312     28314     28315     28316
     28315     28317     28318     28319     28318     28320     28321     28322
     28321     28323     28324     28325     28324     28326     28327     28328
     28327     28329     28330     28331     28330     28332     28333     28334
     28333     28335     28336     28337     28336     28338     28339     28340
     28339     28341     28342     28343     28342     28344     28345     28346
     28345     28347     28348     28349     28348     28350     28351     28352
     28351     28353     28354     28355     28354     28356     28357     28358
     28357     28359     28360     28361     28360     28362     28363     28364
     28363     28365     28366     28367     28366     28368     28369     28370
     28369     28371     28372     28373     28372     28374     28375     28376
     28375     28377     28378     28379     28378     28380     28381     28382
     28381     28383     28384     28385     28384     28386     28387     28388
     28387     28389     28390     28391     28390     28392     28393     28394
     28393     28395     28396     28397     28396     28398     28399     28400
     28399     28401     28402     28403     28402     28404     28405     28406
     28405     28407     28408     28409     28408     28410     28411     28412
     28411     28413     28414     28415     28414     28416     28417     28418
     28417     28419     28420     28421     28420     28422     28423     28424
     28423     28425     28426     28427     28426     28428     28429     28430
     28429     28431     28432     28433     28432     28434     28435     28436
     28435     28437     28438     28439     28438     28440     28441     28442
     28441     28443     28444     28445     28444     28446     28447     28448
     28447     28449     28450     28451     28450     28452     28453     28454
     28453     28455     28456     28457     28456     28458     28459     28460
     28459     28461     28462     28463     28462     28464     28465     28466
     28465     28467     28468     28469     28468     28470     28471     28472
     28471     28473     28474     28475     28474     28476     28477     28478
     28477     28479     28480     28481     28480     28482     28483     28484
     28483     28485     28486     28487     28486     28488     28489     28490
     28489     28491     28492     28493     28492     28494     28495     28496
     28495     28497     28498     28499     28498     28500     28501     28502
     28501     28503     28504     28505     28504     28506     28507     28508
     28507     28509     28510     28511     28510     28512     28513     28514
     28513     28515     28516     28517     28516     28518     28519     28520
     28519     28521     28522     28523     28522     28524     28525     28526
     28525     28527     28528     28529     28528     28530     28531     28532
     28531     28533     28534     28535     28534     28536     28537     28538
     28537     28539     28540     28541     28540     28542     28543     28544
     28543     28545     28546     28547     28546     28548     28549     28550
     28549     28551     28552     28553     28552     28554     28555     28556
     28555     28557     28558     28559     28558     28560     28561     28562
     28561     28563     28564     28565     28564     28566     28567     28568
     28567     28569     28570     28571     28570     28572     28573     28574
     28573     28575     28576     28577     28576     28578     28579     28580
     28579     28581     28582     28583     28582     28584     28585     28586
     28585     28587     28588     28589     28588     28590     28591     28592
     28591     28593     28594     28595     28594     28596     28597     28598
     28597     28599     28600     28601     28600     28602     28603     28604
     28603     28605     28606     28607     28606     28608     28609     28610
     28609     28611     28612     28613     28612     28614     28615     28616
     28615     28617     28618     28619     28618     28620     28621     28622
     28621     28623     28624     28625     28624     28626     28627     28628
     28627     28629     28630     28631     28630     28632     28633     28634
     28633     28635     28636     28637     28636     28638     28639     28640
     28639     28641     28642     28643     28642     28644     28645     28646
     28645     28647     28648     28649     28648     28650     28651     28652
     28651     28653     28654     28655     28654     28656     28657     28658
     28657     28659     28660     28661     28660     28662     28663     28664
     28663     28665     28666     28667     28666     28668     28669     28670
     28669     28671     28672     28673     28672     28674     28675     28676
     28675     28677     28678     28679     28678     28680     28681     28682
     28681     28683     28684     28685     28684     28686     28687     28688
     28687     28689     28690     28691     28690     28692     28693     28694
     28693     28695     28696     28697     28696     28698     28699     28700
     28699     28701     28702     28703     28702     28704     28705     28706
     28705     28707     28708     28709     28708     28710     28711     28712
     28711     28713     28714     28715     28714     28716     28717     28718
     28717     28719     28720     28721     28720     28722     28723     28724
     28723     28725     28726     28727     28726     28728     28729     28730
     28729     28731     28732     28733     28732     28734     28735     28736
     28735     28737     28738     28739     28738     28740     28741     28742
     28741     28743     28744     28745     28744     28746     28747     28748
     28747     28749     28750     28751     28750     28752     28753     28754
     28753     28755     28756     28757     28756     28758     28759     28760
     28759     28761     28762     28763     28762     28764     28765     28766
     28765     28767     28768     28769     28768     28770     28771     28772
     28771     28773     28774     28775     28774     28776     28777     28778
     28777     28779     28780     28781     28780     28782     28783     28784
     28783     28785     28786     28787     28786     28788     28789     28790
     28789     28791     28792     28793     28792     28794     28795     28796
     28795     28797     28798     28799     28798     28800     28801     28802
     28801     28803     28804     28805     28804     28806     28807     28808
     28807     28809     28810     28811     28810     28812     28813     28814
     28813     28815     28816     28817     28816     28818     28819     28820
     28819     28821     28822     28823     28822     28824     28825     28826
     28825     28827     28828     28829     28828     28830     28831     28832
     28831     28833     28834     28835     28834     28836     28837     28838
     28837     28839     28840     28841     28840     28842     28843     28844
     28843     28845     28846     28847     28846     28848     28849     28850
     28849     28851     28852     28853     28852     28854     28855     28856
     28855     28857     28858     28859     28858     28860     28861     28862
     28861     28863     28864     28865     28864     28866     28867     28868
     28867     28869     28870     28871     28870     28872     28873     28874
     28873     28875     28876     28877     28876     28878     28879     28880
     28879     28881     28882     28883     28882     28884     28885     28886
     28885     28887     28888     28889     28888     28890     28891     28892
     28891     28893     28894     28895     28894     28896     28897     28898
     28897     28899     28900     28901     28900     28902     28903     28904
     28903     28905     28906     28907     28906     28908     28909     28910
     28909     28911     28912     28913     28912     28914     28915     28916
     28915     28917     28918     28919     28918     28920     28921     28922
     28921     28923     28924     28925     28924     28926     28927     28928
     28927     28929     28930     28931     28930     28932     28933     28934
     28933     28935     28936     28937     28936     28938     28939     28940
     28939     28941     28942     28943     28942     28944     28945     28946
     28945     28947     28948     28949     28948     28950     28951     28952
     28951     28953     28954     28955     28954     28956     28957     28958
     28957     28959     28960     28961     28960     28962     28963     28964
     28963     28965     28966     28967     28966     28968     28969     28970
     28969     28971     28972     28973     28972     28974     28975     28976
     28975     28977     28978     28979     28978     28980     28981     28982
     28981     28983     28984     28985     28984     28986     28987     28988
     28987     28989     28990     28991     28990     28992     28993     28994
     28993     28995     28996     28997     28996     28998     28999     29000
     28999     29001     29002     29003     29002     29004     29005     29006
     29005     29007     29008     29009     29008     29010     29011     29012
     29011     29013     29014     29015     29014     29016     29017     29018
     29017     29019     29020     29021     29020     29022     29023     29024
     29023     29025     29026     29027     29026     29028     29029     29030
     29029     29031     29032     29033     29032     29034     29035     29036
     29035     29037     29038     29039     29038     29040     29041     29042
     29041     29043     29044     29045     29044     29046     29047     29048
     29047     29049     29050     29051     29050     29052     29053     29054
     29053     29055     29056     29057     29056     29058     29059     29060
     29059     29061     29062     29063     29062     29064     29065     29066
     29065     29067     29068     29069     29068     29070     29071     29072
     29071     29073     29074     29075     29074     29076     29077     29078
     29077     29079     29080     29081     29080     29082     29083     29084
     29083     29085     29086     29087     29086     29088     29089     29090
     29089     29091     29092     29093     29092     29094     29095     29096
     29095     29097     29098     29099     29098     29100     29101     29102
     29101     29103     29104     29105     29104     29106     29107     29108
     29107     29109     29110     29111     29110     29112     29113     29114
     29113     29115     29116     29117     29116     29118     29119     29120
     29119     29121     29122     29123     29122     29124     29125     29126
     29125     29127     29128     29129     29128     29130     29131     29132
     29131     29133     29134     29135     29134     29136     29137     29138
     29137     29139     29140     29141     29140     29142     29143     29144
     29143     29145     29146     29147     29146     29148     29149     29150
     29149     29151     29152     29153     29152     29154     29155     29156
     29155     29157     29158     29159     29158     29160     29161     29162
     29161     29163     29164     29165     29164     29166     29167     29168
     29167     29169     29170     29171     29170     29172     29173     29174
     29173     29175     29176     29177     29176     29178     29179     29180
     29179     29181     29182     29183     29182     29184     29185     29186
     29185     29187     29188     29189     29188     29190     29191     29192
     29191     29193     29194     29195     29194     29196     29197     29198
     29197     29199     29200     29201     29200     29202     29203     29204
     29203     29205     29206     29207     29206     29208     29209     29210
     29209     29211     29212     29213     29212     29214     29215     29216
     29215     29217     29218     29219     29218     29220     29221     29222
     29221     29223     29224     29225     29224     29226     29227     29228
     29227     29229     29230     29231     29230     29232     29233     29234
     29233     29235     29236     29237     29236     29238     29239     29240
     29239     29241     29242     29243     29242     29244     29245     29246
     29245     29247     29248     29249     29248     29250     29251     29252
     29251     29253     29254     29255     29254     29256     29257     29258
     29257     29259     29260     29261     29260     29262     29263     29264
     29263     29265     29266     29267     29266     29268     29269     29270
     29269     29271     29272     29273     29272     29274     29275     29276
     29275     29277     29278     29279     29278     29280     29281     29282
     29281     29283     29284     29285     29284     29286     29287     29288
     29287     29289     29290     29291     29290     29292     29293     29294
     29293     29295     29296     29297     29296     29298     29299     29300
     29299     29301     29302     29303     29302     29304     29305     29306
     29305     29307     29308     29309     29308     29310     29311     29312
     29311     29313     29314     29315     29314     29316     29317     29318
     29317     29319     29320     29321     29320     29322     29323     29324
     29323     29325     29326     29327     29326     29328     29329     29330
     29329     29331     29332     29333     29332     29334     29335     29336
     29335     29337     29338     29339     29338     29340     29341     29342
     29341     29343     29344     29345     29344     29346     29347     29348
     29347     29349     29350     29351     29350     29352     29353     29354
     29353     29355     29356     29357     29356     29358     29359     29360
     29359     29361     29362     29363     29362     29364     29365     29366
     29365     29367     29368     29369     29368     29370     29371     29372
     29371     29373     29374     29375     29374     29376     29377     29378
     29377     29379     29380     29381     29380     29382     29383     29384
     29383     29385     29386     29387     29386     29388     29389     29390
     29389     29391     29392     29393     29392     29394     29395     29396
     29395     29397     29398     29399     29398     29400     29401     29402
     29401     29403     29404     29405     29404     29406     29407     29408
     29407     29409     29410     29411     29410     29412     29413     29414
     29413     29415     29416     29417     29416     29418     29419     29420
     29419     29421     29422     29423     29422     29424     29425     29426
     29425     29427     29428     29429     29428     29430     29431     29432
     29431     29433     29434     29435     29434     29436     29437     29438
     29437     29439     29440     29441     29440     29442     29443     29444
     29443     29445     29446     29447     29446     29448     29449     29450
     29449     29451     29452     29453     29452     29454     29455     29456
     29455     29457     29458     29459     29458     29460     29461     29462
     29461     29463     29464     29465     29464     29466     29467     29468
     29467     29469     29470     29471     29470     29472     29473     29474
     29473     29475     29476     29477     29476     29478     29479     29480
     29479     29481     29482     29483     29482     29484     29485     29486
     29485     29487     29488     29489     29488     29490     29491     29492
     29491     29493     29494     29495     29494     29496     29497     29498
     29497     29499     29500     29501     29500     29502     29503     29504
     29503     29505     29506     29507     29506     29508     29509     29510
     29509     29511     29512     29513     29512     29514     29515     29516
     29515     29517     29518     29519     29518     29520     29521     29522
     29521     29523     29524     29525     29524     29526     29527     29528
     29527     29529     29530     29531     29530     29532     29533     29534
     29533     29535     29536     29537     29536     29538     29539     29540
     29539     29541     29542     29543     29542     29544     29545     29546
     29545     29547     29548     29549     29548     29550     29551     29552
     29551     29553     29554     29555     29554     29556     29557     29558
     29557     29559     29560     29561     29560     29562     29563     29564
     29563     29565     29566     29567     29566     29568     29569     29570
     29569     29571     29572     29573     29572     29574     29575     29576
     29575     29577     29578     29579     29578     29580     29581     29582
     29581     29583     29584     29585     29584     29586     29587     29588
     29587     29589     29590     29591     29590     29592     29593     29594
     29593     29595     29596     29597     29596     29598     29599     29600
     29599     29601     29602     29603     29602     29604     29605     29606
     29605     29607     29608     29609     29608     29610     29611     29612
     29611     29613     29614     29615     29614     29616     29617     29618
     29617     29619     29620     29621     29620     29622     29623     29624
     29623     29625     29626     29627     29626     29628     29629     29630
     29629     29631     29632     29633     29632     29634     29635     29636
     29635     29637     29638     29639     29638     29640     29641     29642
     29641     29643     29644     29645     29644     29646     29647     29648
     29647     29649     29650     29651     29650     29652     29653     29654
     29653     29655     29656     29657     29656     29658     29659     29660
     29659     29661     29662     29663     29662     29664     29665     29666
     29665     29667     29668     29669     29668     29670     29671     29672
     29671     29673     29674     29675     29674     29676     29677     29678
     29677     29679     29680     29681     29680     29682     29683     29684
     29683     29685     29686     29687     29686     29688     29689     29690
     29689     29691     29692     29693     29692     29694     29695     29696
     29695     29697     29698     29699     29698     29700     29701     29702
     29701     29703     29704     29705     29704     29706     29707     29708
     29707     29709     29710     29711     29710     29712     29713     29714
     29713     29715     29716     29717     29716     29718     29719     29720
     29719     29721     29722     29723     29722     29724     29725     29726
     29725     29727     29728     29729     29728     29730     29731     29732
     29731     29733     29734     29735     29734     29736     29737     29738
     29737     29739     29740     29741     29740     29742     29743     29744
     29743     29745     29746     29747     29746     29748     29749     29750
     29749     29751     29752     29753     29752     29754     29755     29756
     29755     29757     29758     29759     29758     29760     29761     29762
     29761     29763     29764     29765     29764     29766     29767     29768
     29767     29769     29770     29771     29770     29772     29773     29774
     29773     29775     29776     29777     29776     29778     29779     29780
     29779     29781     29782     29783     29782     29784     29785     29786
     29785     29787     29788     29789     29788     29790     29791     29792
     29791     29793     29794     29795     29794     29796     29797     29798
     29797     29799     29800     29801     29800     29802     29803     29804
     29803     29805     29806     29807     29806     29808     29809     29810
     29809     29811     29812     29813     29812     29814     29815     29816
     29815     29817     29818     29819     29818     29820     29821     29822
     29821     29823     29824     29825     29824     29826     29827     29828
     29827     29829     29830     29831     29830     29832     29833     29834
     29833     29835     29836     29837     29836     29838     29839     29840
     29839     29841     29842     29843     29842     29844     29845     29846
     29845     29847     29848     29849     29848     29850     29851     29852
     29851     29853     29854     29855     29854     29856     29857     29858
     29857     29859     29860     29861     29860     29862     29863     29864
     29863     29865     29866     29867     29866     29868     29869     29870
     29869     29871     29872     29873     29872     29874     29875     29876
     29875     29877     29878     29879     29878     29880     29881     29882
     29881     29883     29884     29885     29884     29886     29887     29888
     29887     29889     29890     29891     29890     29892     29893     29894
     29893     29895     29896     29897     29896     29898     29899     29900
     29899     29901     29902     29903     29902     29904     29905     29906
     29905     29907     29908     29909     29908     29910     29911     29912
     29911     29913     29914     29915     29914     29916     29917     29918
     29917     29919     29920     29921     29920     29922     29923     29924
     29923     29925     29926     29927     29926     29928     29929     29930
     29929     29931     29932     29933     29932     29934     29935     29936
     29935     29937     29938     29939     29938     29940     29941     29942
     29941     29943     29944     29945     29944     29946     29947     29948
     29947     29949     29950     29951     29950     29952     29953     29954
     29953     29955     29956     29957     29956     29958     29959     29960
     29959     29961     29962     29963     29962     29964     29965     29966
     29965     29967     29968     29969     29968     29970     29971     29972
     29971     29973     29974     29975     29974     29976     29977     29978
     29977     29979     29980     29981     29980     29982     29983     29984
     29983     29985     29986     29987     29986     29988     29989     29990
     29989     29991     29992     29993     29992     29994     29995     29996
     29995     29997     29998     29999     29998     30000     30001     30002
     30001     30003     30004     30005     30004     30006     30007     30008
     30007     30009     30010     30011     30010     30012     30013     30014
     30013     30015     30016     30017     30016     30018     30019     30020
     30019     30021     30022     30023     30022     30024     30025     30026
     30025     30027     30028     30029     30028     30030     30031     30032
     30031     30033     30034     30035     30034     30036     30037     30038
     30037     30039     30040     30041     30040     30042     30043     30044
     30043     30045     30046     30047     30046     30048     30049     30050
     30049     30051     30052     30053     30052     30054     30055     30056
     30055     30057     30058     30059     30058     30060     30061     30062
     30061     30063     30064     30065     30064     30066     30067     30068
     30067     30069     30070     30071     30070     30072     30073     30074
     30073     30075     30076     30077     30076     30078     30079     30080
     30079     30081     30082     30083     30082     30084     30085     30086
     30085     30087     30088     30089     30088     30090     30091     30092
     30091     30093     30094     30095     30094     30096     30097     30098
     30097     30099     30100     30101     30100     30102     30103     30104
     30103     30105     30106     30107     30106     30108     30109     30110
     30109     30111     30112     30113     30112     30114     30115     30116
     30115     30117     30118     30119     30118     30120     30121     30122
     30121     30123     30124     30125     30124     30126     30127     30128
     30127     30129     30130     30131     30130     30132     30133     30134
     30133     30135     30136     30137     30136     30138     30139     30140
     30139     30141     30142     30143     30142     30144     30145     30146
     30145     30147     30148     30149     30148     30150     30151     30152
     30151     30153     30154     30155     30154     30156     30157     30158
     30157     30159     30160     30161     30160     30162     30163     30164
     30163     30165     30166     30167     30166     30168     30169     30170
     30169     30171     30172     30173     30172     30174     30175     30176
     30175     30177     30178     30179     30178     30180     30181     30182
     30181     30183     30184     30185     30184     30186     30187     30188
     30187     30189     30190     30191     30190     30192     30193     30194
     30193     30195     30196     30197     30196     30198     30199     30200
     30199     30201     30202     30203     30202     30204     30205     30206
     30205     30207     30208     30209     30208     30210     30211     30212
     30211     30213     30214     30215     30214     30216     30217     30218
     30217     30219     30220     30221     30220     30222     30223     30224
     30223     30225     30226     30227     30226     30228     30229     30230
     30229     30231     30232     30233     30232     30234     30235     30236
     30235     30237     30238     30239     30238     30240     30241     30242
     30241     30243     30244     30245     30244     30246     30247     30248
     30247     30249     30250     30251     30250     30252     30253     30254
     30253     30255     30256     30257     30256     30258     30259     30260
     30259     30261     30262     30263     30262     30264     30265     30266
     30265     30267     30268     30269     30268     30270     30271     30272
     30271     30273     30274     30275     30274     30276     30277     30278
     30277     30279     30280     30281     30280     30282     30283     30284
     30283     30285     30286     30287     30286     30288     30289     30290
     30289     30291     30292     30293     30292     30294     30295     30296
     30295     30297     30298     30299     30298     30300     30301     30302
     30301     30303     30304     30305     30304     30306     30307     30308
     30307     30309     30310     30311     30310     30312     30313     30314
     30313     30315     30316     30317     30316     30318     30319     30320
     30319     30321     30322     30323     30322     30324     30325     30326
     30325     30327     30328     30329     30328     30330     30331     30332
     30331     30333     30334     30335     30334     30336     30337     30338
     30337     30339     30340     30341     30340     30342     30343     30344
     30343     30345     30346     30347     30346     30348     30349     30350
     30349     30351     30352     30353     30352     30354     30355     30356
     30355     30357     30358     30359     30358     30360     30361     30362
     30361     30363     30364     30365     30364     30366     30367     30368
     30367     30369     30370     30371     30370     30372     30373     30374
     30373     30375     30376     30377     30376     30378     30379     30380
     30379     30381     30382     30383     30382     30384     30385     30386
     30385     30387     30388     30389     30388     30390     30391     30392
     30391     30393     30394     30395     30394     30396     30397     30398
     30397     30399     30400     30401     30400     30402     30403     30404
     30403     30405     30406     30407     30406     30408     30409     30410
     30409     30411     30412     30413     30412     30414     30415     30416
     30415     30417     30418     30419     30418     30420     30421     30422
     30421     30423     30424     30425     30424     30426     30427     30428
     30427     30429     30430     30431     30430     30432     30433     30434
     30433     30435     30436     30437     30436     30438     30439     30440
     30439     30441     30442     30443     30442     30444     30445     30446
     30445     30447     30448     30449     30448     30450     30451     30452
     30451     30453     30454     30455     30454     30456     30457     30458
     30457     30459     30460     30461     30460     30462     30463     30464
     30463     30465     30466     30467     30466     30468     30469     30470
     30469     30471     30472     30473     30472     30474     30475     30476
     30475     30477     30478     30479     30478     30480     30481     30482
     30481     30483     30484     30485     30484     30486     30487     30488
     30487     30489     30490     30491     30490     30492     30493     30494
     30493     30495     30496     30497     30496     30498     30499     30500
     30499     30501     30502     30503     30502     30504     30505     30506
     30505     30507     30508     30509     30508     30510     30511     30512
     30511     30513     30514     30515     30514     30516     30517     30518
     30517     30519     30520     30521     30520     30522     30523     30524
     30523     30525     30526     30527     30526     30528     30529     30530
     30529     30531     30532     30533     30532     30534     30535     30536
     30535     30537     30538     30539     30538     30540     30541     30542
     30541     30543     30544     30545     30544     30546     30547     30548
     30547     30549     30550     30551     30550     30552     30553     30554
     30553     30555     30556     30557     30556     30558     30559     30560
     30559     30561     30562     30563     30562     30564     30565     30566
     30565     30567     30568     30569     30568     30570     30571     30572
     30571     30573     30574     30575     30574     30576     30577     30578
     30577     30579     30580     30581     30580     30582     30583     30584
     30583     30585     30586     30587     30586     30588     30589     30590
     30589     30591     30592     30593     30592     30594     30595     30596
     30595     30597     30598     30599     30598     30600     30601     30602
     30601     30603     30604     30605     30604     30606     30607     30608
     30607     30609     30610     30611     30610     30612     30613     30614
     30613     30615     30616     30617     30616     30618     30619     30620
     30619     30621     30622     30623     30622     30624     30625     30626
     30625     30627     30628     30629     30628     30630     30631     30632
     30631     30633     30634     30635     30634     30636     30637     30638
     30637     30639     30640     30641     30640     30642     30643     30644
     30643     30645     30646     30647     30646     30648     30649     30650
     30649     30651     30652     30653     30652     30654     30655     30656
     30655     30657     30658     30659     30658     30660     30661     30662
     30661     30663     30664     30665     30664     30666     30667     30668
     30667     30669     30670     30671     30670     30672     30673     30674
     30673     30675     30676     30677     30676     30678     30679     30680
     30679     30681     30682     30683     30682     30684     30685     30686
     30685     30687     30688     30689     30688     30690     30691     30692
     30691     30693     30694     30695     30694     30696     30697     30698
     30697     30699     30700     30701     30700     30702     30703     30704
     30703     30705     30706     30707     30706     30708     30709     30710
     30709     30711     30712     30713     30712     30714     30715     30716
     30715     30717     30718     30719     30718     30720     30721     30722
     30721     30723     30724     30725     30724     30726     30727     30728
     30727     30729     30730     30731     30730     30732     30733     30734
     30733     30735     30736     30737     30736     30738     30739     30740
     30739     30741     30742     30743     30742     30744     30745     30746
     30745     30747     30748     30749     30748     30750     30751     30752
     30751     30753     30754     30755     30754     30756     30757     30758
     30757     30759     30760     30761     30760     30762     30763     30764
     30763     30765     30766     30767     30766     30768     30769     30770
     30769     30771     30772     30773     30772     30774     30775     30776
     30775     30777     30778     30779     30778     30780     30781     30782
     30781     30783     30784     30785     30784     30786     30787     30788
     30787     30789     30790     30791     30790     30792     30793     30794
     30793     30795     30796     30797     30796     30798     30799     30800
     30799     30801     30802     30803     30802     30804     30805     30806
     30805     30807     30808     30809     30808     30810     30811     30812
     30811     30813     30814     30815     30814     30816     30817     30818
     30817     30819     30820     30821     30820     30822     30823     30824
     30823     30825     30826     30827     30826     30828     30829     30830
     30829     30831     30832     30833     30832     30834     30835     30836
     30835     30837     30838     30839     30838     30840     30841     30842
     30841     30843     30844     30845     30844     30846     30847     30848
     30847     30849     30850     30851     30850     30852     30853     30854
     30853     30855     30856     30857     30856     30858     30859     30860
     30859     30861     30862     30863     30862     30864     30865     30866
     30865     30867     30868     30869     30868     30870     30871     30872
     30871     30873     30874     30875     30874     30876     30877     30878
     30877     30879     30880     30881     30880     30882     30883     30884
     30883     30885     30886     30887     30886     30888     30889     30890
     30889     30891     30892     30893     30892     30894     30895     30896
     30895     30897     30898     30899     30898     30900     30901     30902
     30901     30903     30904     30905     30904     30906     30907     30908
     30907     30909     30910     30911     30910     30912     30913     30914
     30913     30915     30916     30917     30916     30918     30919     30920
     30919     30921     30922     30923     30922     30924     30925     30926
     30925     30927     30928     30929     30928     30930     30931     30932
     30931     30933     30934     30935     30934     30936     30937     30938
     30937     30939     30940     30941     30940     30942     30943     30944
     30943     30945     30946     30947     30946     30948     30949     30950
     30949     30951     30952     30953     30952     30954     30955     30956
     30955     30957     30958     30959     30958     30960     30961     30962
     30961     30963     30964     30965     30964     30966     30967     30968
     30967     30969     30970     30971     30970     30972     30973     30974
     30973     30975     30976     30977     30976     30978     30979     30980
     30979     30981     30982     30983     30982     30984     30985     30986
     30985     30987     30988     30989     30988     30990     30991     30992
     30991     30993     30994     30995     30994     30996     30997     30998
     30997     30999     31000     31001     31000     31002     31003     31004
     31003     31005     31006     31007     31006     31008     31009     31010
     31009     31011     31012     31013     31012     31014     31015     31016
     31015     31017     31018     31019     31018     31020     31021     31022
     31021     31023     31024     31025     31024     31026     31027     31028
     31027     31029     31030     31031     31030     31032     31033     31034
     31033     31035     31036     31037     31036     31038     31039     31040
     31039     31041     31042     31043     31042     31044     31045     31046
     31045     31047     31048     31049     31048     31050     31051     31052
     31051     31053     31054     31055     31054     31056     31057     31058
     31057     31059     31060     31061     31060     31062     31063     31064
     31063     31065     31066     31067     31066     31068     31069     31070
     31069     31071     31072     31073     31072     31074     31075     31076
     31075     31077     31078     31079     31078     31080     31081     31082
     31081     31083     31084     31085     31084     31086     31087     31088
     31087     31089     31090     31091     31090     31092     31093     31094
     31093     31095     31096     31097     31096     31098     31099     31100
     31099     31101     31102     31103     31102     31104     31105     31106
     31105     31107     31108     31109     31108     31110     31111     31112
     31111     31113     31114     31115     31114     31116     31117     31118
     31117     31119     31120     31121     31120     31122     31123     31124
     31123     31125     31126     31127     31126     31128     31129     31130
     31129     31131     31132     31133     31132     31134     31135     31136
     31135     31137     31138     31139     31138     31140     31141     31142
     31141     31143     31144     31145     31144     31146     31147     31148
     31147     31149     31150     31151     31150     31152     31153     31154
     31153     31155     31156     31157     31156     31158     31159     31160
     31159     31161     31162     31163     31162     31164     31165     31166
     31165     31167     31168     31169     31168     31170     31171     31172
     31171     31173     31174     31175     31174     31176     31177     31178
     31177     31179     31180     31181     31180     31182     31183     31184
     31183     31185     31186     31187     31186     31188     31189     31190
     31189     31191     31192     31193     31192     31194     31195     31196
     31195     31197     31198     31199     31198     31200     31201     31202
     31201     31203     31204     31205     31204     31206     31207     31208
     31207     31209     31210     31211     31210     31212     31213     31214
     31213     31215     31216     31217     31216     31218     31219     31220
     31219     31221     31222     31223     31222     31224     31225     31226
     31225     31227     31228     31229     31228     31230     31231     31232
     31231     31233     31234     31235     31234     31236     31237     31238
     31237     31239     31240     31241     31240     31242     31243     31244
     31243     31245     31246     31247     31246     31248     31249     31250
     31249     31251     31252     31253     31252     31254     31255     31256
     31255     31257     31258     31259     31258     31260     31261     31262
     31261     31263     31264     31265     31264     31266     31267     31268
     31267     31269     31270     31271     31270     31272     31273     31274
     31273     31275     31276     31277     31276     31278     31279     31280
     31279     31281     31282     31283     31282     31284     31285     31286
     31285     31287     31288     31289     31288     31290     31291     31292
     31291     31293     31294     31295     31294     31296     31297     31298
     31297     31299     31300     31301     31300     31302     31303     31304
     31303     31305     31306     31307     31306     31308     31309     31310
     31309     31311     31312     31313     31312     31314     31315     31316
     31315     31317     31318     31319     31318     31320     31321     31322
     31321     31323     31324     31325     31324     31326     31327     31328
     31327     31329     31330     31331     31330     31332     31333     31334
     31333     31335     31336     31337     31336     31338     31339     31340
     31339     31341     31342     31343     31342     31344     31345     31346
     31345     31347     31348     31349     31348     31350     31351     31352
     31351     31353     31354     31355     31354     31356     31357     31358
     31357     31359     31360     31361     31360     31362     31363     31364
     31363     31365     31366     31367     31366     31368     31369     31370
     31369     31371     31372     31373     31372     31374     31375     31376
     31375     31377     31378     31379     31378     31380     31381     31382
     31381     31383     31384     31385     31384     31386     31387     31388
     31387     31389     31390     31391     31390     31392     31393     31394
     31393     31395     31396     31397     31396     31398     31399     31400
     31399     31401     31402     31403     31402     31404     31405     31406
     31405     31407     31408     31409     31408     31410     31411     31412
     31411     31413     31414     31415     31414     31416     31417     31418
     31417     31419     31420     31421     31420     31422     31423     31424
     31423     31425     31426     31427     31426     31428     31429     31430
     31429     31431     31432     31433     31432     31434     31435     31436
     31435     31437     31438     31439     31438     31440     31441     31442
     31441     31443     31444     31445     31444     31446     31447     31448
     31447     31449     31450     31451     31450     31452     31453     31454
     31453     31455     31456     31457     31456     31458     31459     31460
     31459     31461     31462     31463     31462     31464     31465     31466
     31465     31467     31468     31469     31468     31470     31471     31472
     31471     31473     31474     31475     31474     31476     31477     31478
     31477     31479     31480     31481     31480     31482     31483     31484
     31483     31485     31486     31487     31486     31488     31489     31490
     31489     31491     31492     31493     31492     31494     31495     31496
     31495     31497     31498     31499     31498     31500     31501     31502
     31501     31503     31504     31505     31504     31506     31507     31508
     31507     31509     31510     31511     31510     31512     31513     31514
     31513     31515     31516     31517     31516     31518     31519     31520
     31519     31521     31522     31523     31522     31524     31525     31526
     31525     31527     31528     31529     31528     31530     31531     31532
     31531     31533     31534     31535     31534     31536     31537     31538
     31537     31539     31540     31541     31540     31542     31543     31544
     31543     31545     31546     31547     31546     31548     31549     31550
     31549     31551     31552     31553     31552     31554     31555     31556
     31555     31557     31558     31559     31558     31560     31561     31562
     31561     31563     31564     31565     31564     31566     31567     31568
     31567     31569     31570     31571     31570     31572     31573     31574
     31573     31575     31576     31577     31576     31578     31579     31580
     31579     31581     31582     31583     31582     31584     31585     31586
     31585     31587     31588     31589     31588     31590     31591     31592
     31591     31593     31594     31595     31594     31596     31597     31598
     31597     31599     31600     31601     31600     31602     31603     31604
     31603     31605     31606     31607     31606     31608     31609     31610
     31609     31611     31612     31613     31612     31614     31615     31616
     31615     31617     31618     31619     31618     31620     31621     31622
     31621     31623     31624     31625     31624     31626     31627     31628
     31627     31629     31630     31631     31630     31632     31633     31634
     31633     31635     31636     31637     31636     31638     31639     31640
     31639     31641     31642     31643     31642     31644     31645     31646
     31645     31647     31648     31649     31648     31650     31651     31652
     31651     31653     31654     31655     31654     31656     31657     31658
     31657     31659     31660     31661     31660     31662     31663     31664
     31663     31665     31666     31667     31666     31668     31669     31670
     31669     31671     31672     31673     31672     31674     31675     31676
     31675     31677     31678     31679     31678     31680     31681     31682
     31681     31683     31684     31685     31684     31686     31687     31688
     31687     31689     31690     31691     31690     31692     31693     31694
     31693     31695     31696     31697     31696     31698     31699     31700
     31699     31701     31702     31703     31702     31704     31705     31706
     31705     31707     31708     31709     31708     31710     31711     31712
     31711     31713     31714     31715     31714     31716     31717     31718
     31717     31719     31720     31721     31720     31722     31723     31724
     31723     31725     31726     31727     31726     31728     31729     31730
     31729     31731     31732     31733     31732     31734     31735     31736
     31735     31737     31738     31739     31738     31740     31741     31742
     31741     31743     31744     31745     31744     31746     31747     31748
     31747     31749     31750     31751     31750     31752     31753     31754
     31753     31755     31756     31757     31756     31758     31759     31760
     31759     31761     31762     31763     31762     31764     31765     31766
     31765     31767     31768     31769     31768     31770     31771     31772
     31771     31773     31774     31775     31774     31776     31777     31778
     31777     31779     31780     31781     31780     31782     31783     31784
     31783     31785     31786     31787     31786     31788     31789     31790
     31789     31791     31792     31793     31792     31794     31795     31796
     31795     31797     31798     31799     31798     31800     31801     31802
     31801     31803     31804     31805     31804     31806     31807     31808
     31807     31809     31810     31811     31810     31812     31813     31814
     31813     31815     31816     31817     31816     31818     31819     31820
     31819     31821     31822     31823     31822     31824     31825     31826
     31825     31827     31828     31829     31828     31830     31831     31832
     31831     31833     31834     31835     31834     31836     31837     31838
     31837     31839     31840     31841     31840     31842     31843     31844
     31843     31845     31846     31847     31846     31848     31849     31850
     31849     31851     31852     31853     31852     31854     31855     31856
     31855     31857     31858     31859     31858     31860     31861     31862
     31861     31863     31864     31865     31864     31866     31867     31868
     31867     31869     31870     31871     31870     31872     31873     31874
     31873     31875     31876     31877     31876     31878     31879     31880
     31879     31881     31882     31883     31882     31884     31885     31886
     31885     31887     31888     31889     31888     31890     31891     31892
     31891     31893     31894     31895     31894     31896     31897     31898
     31897     31899     31900     31901     31900     31902     31903     31904
     31903     31905     31906     31907     31906     31908     31909     31910
     31909     31911     31912     31913     31912     31914     31915     31916
     31915     31917     31918     31919     31918     31920     31921     31922
     31921     31923     31924     31925     31924     31926     31927     31928
     31927     31929     31930     31931     31930     31932     31933     31934
     31933     31935     31936     31937     31936     31938     31939     31940
     31939     31941     31942     31943     31942     31944     31945     31946
     31945     31947     31948     31949     31948     31950     31951     31952
     31951     31953     31954     31955     31954     31956     31957     31958
     31957     31959     31960     31961     31960     31962     31963     31964
     31963     31965     31966     31967     31966     31968     31969     31970
     31969     31971     31972     31973     31972     31974     31975     31976
     31975     31977     31978     31979     31978     31980     31981     31982
     31981     31983     31984     31985     31984     31986     31987     31988
     31987     31989     31990     31991     31990     31992     31993     31994
     31993     31995     31996     31997     31996     31998     31999     32000
     31999     32001     32002     32003     32002     32004     32005     32006
     32005     32007     32008     32009     32008     32010     32011     32012
     32011     32013     32014     32015     32014     32016     32017     32018
     32017     32019     32020     32021     32020     32022     32023     32024
     32023     32025     32026     32027     32026     32028     32029     32030
     32029     32031     32032     32033     32032     32034     32035     32036
     32035     32037     32038     32039     32038     32040     32041     32042
     32041     32043     32044     32045     32044     32046     32047     32048
     32047     32049     32050     32051     32050     32052     32053     32054
     32053     32055     32056     32057     32056     32058     32059     32060
     32059     32061     32062     32063     32062     32064     32065     32066
     32065     32067     32068     32069     32068     32070     32071     32072
     32071     32073     32074     32075     32074     32076     32077     32078
     32077     32079     32080     32081     32080     32082     32083     32084
     32083     32085     32086     32087     32086     32088     32089     32090
     32089     32091     32092     32093     32092     32094     32095     32096
     32095     32097     32098     32099     32098     32100     32101     32102
     32101     32103     32104     32105     32104     32106     32107     32108
     32107     32109     32110     32111     32110     32112     32113     32114
     32113     32115     32116     32117     32116     32118     32119     32120
     32119     32121     32122     32123     32122     32124     32125     32126
     32125     32127     32128     32129     32128     32130     32131     32132
     32131     32133     32134     32135     32134     32136     32137     32138
     32137     32139     32140     32141     32140     32142     32143     32144
     32143     32145     32146     32147     32146     32148     32149     32150
     32149     32151     32152     32153     32152     32154     32155     32156
     32155     32157     32158     32159     32158     32160     32161     32162
     32161     32163     32164     32165     32164     32166     32167     32168
     32167     32169     32170     32171     32170     32172     32173     32174
     32173     32175     32176     32177     32176     32178     32179     32180
     32179     32181     32182     32183     32182     32184     32185     32186
     32185     32187     32188     32189     32188     32190     32191     32192
     32191     32193     32194     32195     32194     32196     32197     32198
     32197     32199     32200     32201     32200     32202     32203     32204
     32203     32205     32206     32207     32206     32208     32209     32210
     32209     32211     32212     32213     32212     32214     32215     32216
     32215     32217     32218     32219     32218     32220     32221     32222
     32221     32223     32224     32225     32224     32226     32227     32228
     32227     32229     32230     32231     32230     32232     32233     32234
     32233     32235     32236     32237     32236     32238     32239     32240
     32239     32241     32242     32243     32242     32244     32245     32246
     32245     32247     32248     32249     32248     32250     32251     32252
     32251     32253     32254     32255     32254     32256     32257     32258
     32257     32259     32260     32261     32260     32262     32263     32264
     32263     32265     32266     32267     32266     32268     32269     32270
     32269     32271     32272     32273     32272     32274     32275     32276
     32275     32277     32278     32279     32278     32280     32281     32282
     32281     32283     32284     32285     32284     32286     32287     32288
     32287     32289     32290     32291     32290     32292     32293     32294
     32293     32295     32296     32297     32296     32298     32299     32300
     32299     32301     32302     32303     32302     32304     32305     32306
     32305     32307     32308     32309     32308     32310     32311     32312
     32311     32313     32314     32315     32314     32316     32317     32318
     32317     32319     32320     32321     32320     32322     32323     32324
     32323     32325     32326     32327     32326     32328     32329     32330
     32329     32331     32332     32333     32332     32334     32335     32336
     32335     32337     32338     32339     32338     32340     32341     32342
     32341     32343     32344     32345     32344     32346     32347     32348
     32347     32349     32350     32351     32350     32352     32353     32354
     32353     32355     32356     32357     32356     32358     32359     32360
     32359     32361     32362     32363     32362     32364     32365     32366
     32365     32367     32368     32369     32368     32370     32371     32372
     32371     32373     32374     32375     32374     32376     32377     32378
     32377     32379     32380     32381     32380     32382     32383     32384
     32383     32385     32386     32387     32386     32388     32389     32390
     32389     32391     32392     32393     32392     32394     32395     32396
     32395     32397     32398     32399     32398     32400     32401     32402
     32401     32403     32404     32405     32404     32406     32407     32408
     32407     32409     32410     32411     32410     32412     32413     32414
     32413     32415     32416     32417     32416     32418     32419     32420
     32419     32421     32422     32423     32422     32424     32425     32426
     32425     32427     32428     32429     32428     32430     32431     32432
     32431     32433     32434     32435     32434     32436     32437     32438
     32437     32439     32440     32441     32440     32442     32443     32444
     32443     32445     32446     32447     32446     32448     32449     32450
     32449     32451     32452     32453     32452     32454     32455     32456
     32455     32457     32458     32459     32458     32460     32461     32462
     32461     32463     32464     32465     32464     32466     32467     32468
     32467     32469     32470     32471     32470     32472     32473     32474
     32473     32475     32476     32477     32476     32478     32479     32480
     32479     32481     32482     32483     32482     32484     32485     32486
     32485     32487     32488     32489     32488     32490     32491     32492
     32491     32493     32494     32495     32494     32496     32497     32498
     32497     32499     32500     32501     32500     32502     32503     32504
     32503     32505     32506     32507     32506     32508     32509     32510
     32509     32511     32512     32513     32512     32514     32515     32516
     32515     32517     32518     32519     32518     32520     32521     32522
     32521     32523     32524     32525     32524     32526     32527     32528
     32527     32529     32530     32531     32530     32532     32533     32534
     32533     32535     32536     32537     32536     32538     32539     32540
     32539     32541     32542     32543     32542     32544     32545     32546
     32545     32547     32548     32549     32548     32550     32551     32552
     32551     32553     32554     32555     32554     32556     32557     32558
     32557     32559     32560     32561     32560     32562     32563     32564
     32563     32565     32566     32567     32566     32568     32569     32570
     32569     32571     32572     32573     32572     32574     32575     32576
     32575     32577     32578     32579     32578     32580     32581     32582
     32581     32583     32584     32585     32584     32586     32587     32588
     32587     32589     32590     32591     32590     32592     32593     32594
     32593     32595     32596     32597     32596     32598     32599     32600
     32599     32601     32602     32603     32602     32604     32605     32606
     32605     32607     32608     32609     32608     32610     32611     32612
     32611     32613     32614     32615     32614     32616     32617     32618
     32617     32619     32620     32621     32620     32622     32623     32624
     32623     32625     32626     32627     32626     32628     32629     32630
     32629     32631     32632     32633     32632     32634     32635     32636
     32635     32637     32638     32639     32638     32640     32641     32642
     32641     32643     32644     32645     32644     32646     32647     32648
     32647     32649     32650     32651     32650     32652     32653     32654
     32653     32655     32656     32657     32656     32658     32659     32660
     32659     32661     32662     32663     32662     32664     32665     32666
     32665     32667     32668     32669     32668     32670     32671     32672
     32671     32673     32674     32675     32674     32676     32677     32678
     32677     32679     32680     32681     32680     32682     32683     32684
     32683     32685     32686     32687     32686     32688     32689     32690
     32689     32691     32692     32693     32692     32694     32695     32696
     32695     32697     32698     32699     32698     32700     32701     32702
     32701     32703     32704     32705     32704     32706     32707     32708
     32707     32709     32710     32711     32710     32712     32713     32714
     32713     32715     32716     32717     32716     32718     32719     32720
     32719     32721     32722     32723     32722     32724     32725     32726
     32725     32727     32728     32729     32728     32730     32731     32732
     32731     32733     32734     32735     32734     32736     32737     32738
     32737     32739     32740     32741     32740     32742     32743     32744
     32743     32745     32746     32747     32746     32748     32749     32750
     32749     32751     32752     32753     32752     32754     32755     32756
     32755     32757     32758     32759     32758     32760     32761     32762
     32761     32763     32764     32765     32764     32766     32767     32768
     32767     32769     32770     32771     32770     32772     32773     32774
     32773     32775     32776     32777     32776     32778     32779     32780
     32779     32781     32782     32783     32782     32784     32785     32786
     32785     32787     32788     32789     32788     32790     32791     32792
     32791     32793     32794     32795     32794     32796     32797     32798
     32797     32799     32800     32801     32800     32802     32803     32804
     32803     32805     32806     32807     32806     32808     32809     32810
     32809     32811     32812     32813     32812     32814     32815     32816
     32815     32817     32818     32819     32818     32820     32821     32822
     32821     32823     32824     32825     32824     32826     32827     32828
     32827     32829     32830     32831     32830     32832     32833     32834
     32833     32835     32836     32837     32836     32838     32839     32840
     32839     32841     32842     32843     32842     32844     32845     32846
     32845     32847     32848     32849     32848     32850     32851     32852
     32851     32853     32854     32855     32854     32856     32857     32858
     32857     32859     32860     32861     32860     32862     32863     32864
     32863     32865     32866     32867     32866     32868     32869     32870
     32869     32871     32872     32873     32872     32874     32875     32876
     32875     32877     32878     32879     32878     32880     32881     32882
     32881     32883     32884     32885     32884     32886     32887     32888
     32887     32889     32890     32891     32890     32892     32893     32894
     32893     32895     32896     32897     32896     32898     32899     32900
     32899     32901     32902     32903     32902     32904     32905     32906
     32905     32907     32908     32909     32908     32910     32911     32912
     32911     32913     32914     32915     32914     32916     32917     32918
     32917     32919     32920     32921     32920     32922     32923     32924
     32923     32925     32926     32927     32926     32928     32929     32930
     32929     32931     32932     32933     32932     32934     32935     32936
     32935     32937     32938     32939     32938     32940     32941     32942
     32941     32943     32944     32945     32944     32946     32947     32948
     32947     32949     32950     32951     32950     32952     32953     32954
     32953     32955     32956     32957     32956     32958     32959     32960
     32959     32961     32962     32963     32962     32964     32965     32966
     32965     32967     32968     32969     32968     32970     32971     32972
     32971     32973     32974     32975     32974     32976     32977     32978
     32977     32979     32980     32981     32980     32982     32983     32984
     32983     32985     32986     32987     32986     32988     32989     32990
     32989     32991     32992     32993     32992     32994     32995     32996
     32995     32997     32998     32999     32998     33000     33001     33002
     33001     33003     33004     33005     33004     33006     33007     33008
     33007     33009     33010     33011     33010     33012     33013     33014
     33013     33015     33016     33017     33016     33018     33019     33020
     33019     33021     33022     33023     33022     33024     33025     33026
     33025     33027     33028     33029     33028     33030     33031     33032
     33031     33033     33034     33035     33034     33036     33037     33038
     33037     33039     33040     33041     33040     33042     33043     33044
     33043     33045     33046     33047     33046     33048     33049     33050
     33049     33051     33052     33053     33052     33054     33055     33056
     33055     33057     33058     33059     33058     33060     33061     33062
     33061     33063     33064     33065     33064     33066     33067     33068
     33067     33069     33070     33071     33070     33072     33073     33074
     33073     33075     33076     33077     33076     33078     33079     33080
     33079     33081     33082     33083     33082     33084     33085     33086
     33085     33087     33088     33089     33088     33090     33091     33092
     33091     33093     33094     33095     33094     33096     33097     33098
     33097     33099     33100     33101     33100     33102     33103     33104
     33103     33105     33106     33107     33106     33108     33109     33110
     33109     33111     33112     33113     33112     33114     33115     33116
     33115     33117     33118     33119     33118     33120     33121     33122
     33121     33123     33124     33125     33124     33126     33127     33128
     33127     33129     33130     33131     33130     33132     33133     33134
     33133     33135     33136     33137     33136     33138     33139     33140
     33139     33141     33142     33143     33142     33144     33145     33146
     33145     33147     33148     33149     33148     33150     33151     33152
     33151     33153     33154     33155     33154     33156     33157     33158
     33157     33159     33160     33161     33160     33162     33163     33164
     33163     33165     33166     33167     33166     33168     33169     33170
     33169     33171     33172     33173     33172     33174     33175     33176
     33175     33177     33178     33179     33178     33180     33181     33182
     33181     33183     33184     33185     33184     33186     33187     33188
     33187     33189     33190     33191     33190     33192     33193     33194
     33193     33195     33196     33197     33196     33198     33199     33200
     33199     33201     33202     33203     33202     33204     33205     33206
     33205     33207     33208     33209     33208     33210     33211     33212
     33211     33213     33214     33215     33214     33216     33217     33218
     33217     33219     33220     33221     33220     33222     33223     33224
     33223     33225     33226     33227     33226     33228     33229     33230
     33229     33231     33232     33233     33232     33234     33235     33236
     33235     33237     33238     33239     33238     33240     33241     33242
     33241     33243     33244     33245     33244     33246     33247     33248
     33247     33249     33250     33251     33250     33252     33253     33254
     33253     33255     33256     33257     33256     33258     33259     33260
     33259     33261     33262     33263     33262     33264     33265     33266
     33265     33267     33268     33269     33268     33270     33271     33272
     33271     33273     33274     33275     33274     33276     33277     33278
     33277     33279     33280     33281     33280     33282     33283     33284
     33283     33285     33286     33287     33286     33288     33289     33290
     33289     33291     33292     33293     33292     33294     33295     33296
     33295     33297     33298     33299     33298     33300     33301     33302
     33301     33303     33304     33305     33304     33306     33307     33308
     33307     33309     33310     33311     33310     33312     33313     33314
     33313     33315     33316     33317     33316     33318     33319     33320
     33319     33321     33322     33323     33322     33324     33325     33326
     33325     33327     33328     33329     33328     33330     33331     33332
     33331     33333     33334     33335     33334     33336     33337     33338
     33337     33339     33340     33341     33340     33342     33343     33344
     33343     33345     33346     33347     33346     33348     33349     33350
     33349     33351     33352     33353     33352     33354     33355     33356
     33355     33357     33358     33359     33358     33360     33361     33362
     33361     33363     33364     33365     33364     33366     33367     33368
     33367     33369     33370     33371     33370     33372     33373     33374
     33373     33375     33376     33377     33376     33378     33379     33380
     33379     33381     33382     33383     33382     33384     33385     33386
     33385     33387     33388     33389     33388     33390     33391     33392
     33391     33393     33394     33395     33394     33396     33397     33398
     33397     33399     33400     33401     33400     33402     33403     33404
     33403     33405     33406     33407     33406     33408     33409     33410
     33409     33411     33412     33413     33412     33414     33415     33416
     33415     33417     33418     33419     33418     33420     33421     33422
     33421     33423     33424     33425     33424     33426     33427     33428
     33427     33429     33430     33431     33430     33432     33433     33434
     33433     33435     33436     33437     33436     33438     33439     33440
     33439     33441     33442     33443     33442     33444     33445     33446
     33445     33447     33448     33449     33448     33450     33451     33452
     33451     33453     33454     33455     33454     33456     33457     33458
     33457     33459     33460     33461     33460     33462     33463     33464
     33463     33465     33466     33467     33466     33468     33469     33470
     33469     33471     33472     33473     33472     33474     33475     33476
     33475     33477     33478     33479     33478     33480     33481     33482
     33481     33483     33484     33485     33484     33486     33487     33488
     33487     33489     33490     33491     33490     33492     33493     33494
     33493     33495     33496     33497     33496     33498     33499     33500
     33499     33501     33502     33503     33502     33504     33505     33506
     33505     33507     33508     33509     33508     33510     33511     33512
     33511     33513     33514     33515     33514     33516     33517     33518
     33517     33519     33520     33521     33520     33522     33523     33524
     33523     33525     33526     33527     33526     33528     33529     33530
     33529     33531     33532     33533     33532     33534     33535     33536
     33535     33537     33538     33539     33538     33540     33541     33542
     33541     33543     33544     33545     33544     33546     33547     33548
     33547     33549     33550     33551     33550     33552     33553     33554
     33553     33555     33556     33557     33556     33558     33559     33560
     33559     33561     33562     33563     33562     33564     33565     33566
     33565     33567     33568     33569     33568     33570     33571     33572
     33571     33573     33574     33575     33574     33576     33577     33578
     33577     33579     33580     33581     33580     33582     33583     33584
     33583     33585     33586     33587     33586     33588     33589     33590
     33589     33591     33592     33593     33592     33594     33595     33596
     33595     33597     33598     33599     33598     33600     33601     33602
     33601     33603     33604     33605     33604     33606     33607     33608
     33607     33609     33610     33611     33610     33612     33613     33614
     33613     33615     33616     33617     33616     33618     33619     33620
     33619     33621     33622     33623     33622     33624     33625     33626
     33625     33627     33628     33629     33628     33630     33631     33632
     33631     33633     33634     33635     33634     33636     33637     33638
     33637     33639     33640     33641     33640     33642     33643     33644
     33643     33645     33646     33647     33646     33648     33649     33650
     33649     33651     33652     33653     33652     33654     33655     33656
     33655     33657     33658     33659     33658     33660     33661     33662
     33661     33663     33664     33665     33664     33666     33667     33668
     33667     33669     33670     33671     33670     33672     33673     33674
     33673     33675     33676     33677     33676     33678     33679     33680
     33679     33681     33682     33683     33682     33684     33685     33686
     33685     33687     33688     33689     33688     33690     33691     33692
     33691     33693     33694     33695     33694     33696     33697     33698
     33697     33699     33700     33701     33700     33702     33703     33704
     33703     33705     33706     33707     33706     33708     33709     33710
     33709     33711     33712     33713     33712     33714     33715     33716
     33715     33717     33718     33719     33718     33720     33721     33722
     33721     33723     33724     33725     33724     33726     33727     33728
     33727     33729     33730     33731     33730     33732     33733     33734
     33733     33735     33736     33737     33736     33738     33739     33740
     33739     33741     33742     33743     33742     33744     33745     33746
     33745     33747     33748     33749     33748     33750     33751     33752
     33751     33753     33754     33755     33754     33756     33757     33758
     33757     33759     33760     33761     33760     33762     33763     33764
     33763     33765     33766     33767     33766     33768     33769     33770
     33769     33771     33772     33773     33772     33774     33775     33776
     33775     33777     33778     33779     33778     33780     33781     33782
     33781     33783     33784     33785     33784     33786     33787     33788
     33787     33789     33790     33791     33790     33792     33793     33794
     33793     33795     33796     33797     33796     33798     33799     33800
     33799     33801     33802     33803     33802     33804     33805     33806
     33805     33807     33808     33809     33808     33810     33811     33812
     33811     33813     33814     33815     33814     33816     33817     33818
     33817     33819     33820     33821     33820     33822     33823     33824
     33823     33825     33826     33827     33826     33828     33829     33830
     33829     33831     33832     33833     33832     33834     33835     33836
     33835     33837     33838     33839     33838     33840     33841     33842
     33841     33843     33844     33845     33844     33846     33847     33848
     33847     33849     33850     33851     33850     33852     33853     33854
     33853     33855     33856     33857     33856     33858     33859     33860
     33859     33861     33862     33863     33862     33864     33865     33866
     33865     33867     33868     33869     33868     33870     33871     33872
     33871     33873     33874     33875     33874     33876     33877     33878
     33877     33879     33880     33881     33880     33882     33883     33884
     33883     33885     33886     33887     33886     33888     33889     33890
     33889     33891     33892     33893     33892     33894     33895     33896
     33895     33897     33898     33899     33898     33900     33901     33902
     33901     33903     33904     33905     33904     33906     33907     33908
     33907     33909     33910     33911     33910     33912     33913     33914
     33913     33915     33916     33917     33916     33918     33919     33920
     33919     33921     33922     33923     33922     33924     33925     33926
     33925     33927     33928     33929     33928     33930     33931     33932
     33931     33933     33934     33935     33934     33936     33937     33938
     33937     33939     33940     33941     33940     33942     33943     33944
     33943     33945     33946     33947     33946     33948     33949     33950
     33949     33951     33952     33953     33952     33954     33955     33956
     33955     33957     33958     33959     33958     33960     33961     33962
     33961     33963     33964     33965     33964     33966     33967     33968
     33967     33969     33970     33971     33970     33972     33973     33974
     33973     33975     33976     33977     33976     33978     33979     33980
     33979     33981     33982     33983     33982     33984     33985     33986
     33985     33987     33988     33989     33988     33990     33991     33992
     33991     33993     33994     33995     33994     33996     33997     33998
     33997     33999     34000     34001     34000     34002     34003     34004
     34003     34005     34006     34007     34006     34008     34009     34010
     34009     34011     34012     34013     34012     34014     34015     34016
     34015     34017     34018     34019     34018     34020     34021     34022
     34021     34023     34024     34025     34024     34026     34027     34028
     34027     34029     34030     34031     34030     34032     34033     34034
     34033     34035     34036     34037     34036     34038     34039     34040
     34039     34041     34042     34043     34042     34044     34045     34046
     34045     34047     34048     34049     34048     34050     34051     34052
     34051     34053     34054     34055     34054     34056     34057     34058
     34057     34059     34060     34061     34060     34062     34063     34064
     34063     34065     34066     34067     34066     34068     34069     34070
     34069     34071     34072     34073     34072     34074     34075     34076
     34075     34077     34078     34079     34078     34080     34081     34082
     34081     34083     34084     34085     34084     34086     34087     34088
     34087     34089     34090     34091     34090     34092     34093     34094
     34093     34095     34096     34097     34096     34098     34099     34100
     34099     34101     34102     34103     34102     34104     34105     34106
     34105     34107     34108     34109     34108     34110     34111     34112
     34111     34113     34114     34115     34114     34116     34117     34118
     34117     34119     34120     34121     34120     34122     34123     34124
     34123     34125     34126     34127     34126     34128     34129     34130
     34129     34131     34132     34133     34132     34134     34135     34136
     34135     34137     34138     34139     34138     34140     34141     34142
     34141     34143     34144     34145     34144     34146     34147     34148
     34147     34149     34150     34151     34150     34152     34153     34154
     34153     34155     34156     34157     34156     34158     34159     34160
     34159     34161     34162     34163     34162     34164     34165     34166
     34165     34167     34168     34169     34168     34170     34171     34172
     34171     34173     34174     34175     34174     34176     34177     34178
     34177     34179     34180     34181     34180     34182     34183     34184
     34183     34185     34186     34187     34186     34188     34189     34190
     34189     34191     34192     34193     34192     34194     34195     34196
     34195     34197     34198     34199     34198     34200     34201     34202
     34201     34203     34204     34205     34204     34206     34207     34208
     34207     34209     34210     34211     34210     34212     34213     34214
     34213     34215     34216     34217     34216     34218     34219     34220
     34219     34221     34222     34223     34222     34224     34225     34226
     34225     34227     34228     34229     34228     34230     34231     34232
     34231     34233     34234     34235     34234     34236     34237     34238
     34237     34239     34240     34241     34240     34242     34243     34244
     34243     34245     34246     34247     34246     34248     34249     34250
     34249     34251     34252     34253     34252     34254     34255     34256
     34255     34257     34258     34259     34258     34260     34261     34262
     34261     34263     34264     34265     34264     34266     34267     34268
     34267     34269     34270     34271     34270     34272     34273     34274
     34273     34275     34276     34277     34276     34278     34279     34280
     34279     34281     34282     34283     34282     34284     34285     34286
     34285     34287     34288     34289     34288     34290     34291     34292
     34291     34293     34294     34295     34294     34296     34297     34298
     34297     34299     34300     34301     34300     34302     34303     34304
     34303     34305     34306     34307     34306     34308     34309     34310
     34309     34311     34312     34313     34312     34314     34315     34316
     34315     34317     34318     34319     34318     34320     34321     34322
     34321     34323     34324     34325     34324     34326     34327     34328
     34327     34329     34330     34331     34330     34332     34333     34334
     34333     34335     34336     34337     34336     34338     34339     34340
     34339     34341     34342     34343     34342     34344     34345     34346
     34345     34347     34348     34349     34348     34350     34351     34352
     34351     34353     34354     34355     34354     34356     34357     34358
     34357     34359     34360     34361     34360     34362     34363     34364
     34363     34365     34366     34367     34366     34368     34369     34370
     34369     34371     34372     34373     34372     34374     34375     34376
     34375     34377     34378     34379     34378     34380     34381     34382
     34381     34383     34384     34385     34384     34386     34387     34388
     34387     34389     34390     34391     34390     34392     34393     34394
     34393     34395     34396     34397     34396     34398     34399     34400
     34399     34401     34402     34403     34402     34404     34405     34406
     34405     34407     34408     34409     34408     34410     34411     34412
     34411     34413     34414     34415     34414     34416     34417     34418
     34417     34419     34420     34421     34420     34422     34423     34424
     34423     34425     34426     34427     34426     34428     34429     34430
     34429     34431     34432     34433     34432     34434     34435     34436
     34435     34437     34438     34439     34438     34440     34441     34442
     34441     34443     34444     34445     34444     34446     34447     34448
     34447     34449     34450     34451     34450     34452     34453     34454
     34453     34455     34456     34457     34456     34458     34459     34460
     34459     34461     34462     34463     34462     34464     34465     34466
     34465     34467     34468     34469     34468     34470     34471     34472
     34471     34473     34474     34475     34474     34476     34477     34478
     34477     34479     34480     34481     34480     34482     34483     34484
     34483     34485     34486     34487     34486     34488     34489     34490
     34489     34491     34492     34493     34492     34494     34495     34496
     34495     34497     34498     34499     34498     34500     34501     34502
     34501     34503     34504     34505     34504     34506     34507     34508
     34507     34509     34510     34511     34510     34512     34513     34514
     34513     34515     34516     34517     34516     34518     34519     34520
     34519     34521     34522     34523     34522     34524     34525     34526
     34525     34527     34528     34529     34528     34530     34531     34532
     34531     34533     34534     34535     34534     34536     34537     34538
     34537     34539     34540     34541     34540     34542     34543     34544
     34543     34545     34546     34547     34546     34548     34549     34550
     34549     34551     34552     34553     34552     34554     34555     34556
     34555     34557     34558     34559     34558     34560     34561     34562
     34561     34563     34564     34565     34564     34566     34567     34568
     34567     34569     34570     34571     34570     34572     34573     34574
     34573     34575     34576     34577     34576     34578     34579     34580
     34579     34581     34582     34583     34582     34584     34585     34586
     34585     34587     34588     34589     34588     34590     34591     34592
     34591     34593     34594     34595     34594     34596     34597     34598
     34597     34599     34600     34601     34600     34602     34603     34604
     34603     34605     34606     34607     34606     34608     34609     34610
     34609     34611     34612     34613     34612     34614     34615     34616
     34615     34617     34618     34619     34618     34620     34621     34622
     34621     34623     34624     34625     34624     34626     34627     34628
     34627     34629     34630     34631     34630     34632     34633     34634
     34633     34635     34636     34637     34636     34638     34639     34640
     34639     34641     34642     34643     34642     34644     34645     34646
     34645     34647     34648     34649     34648     34650     34651     34652
     34651     34653     34654     34655     34654     34656     34657     34658
     34657     34659     34660     34661     34660     34662     34663     34664
     34663     34665     34666     34667     34666     34668     34669     34670
     34669     34671     34672     34673     34672     34674     34675     34676
     34675     34677     34678     34679     34678     34680     34681     34682
     34681     34683     34684     34685     34684     34686     34687     34688
     34687     34689     34690     34691     34690     34692     34693     34694
     34693     34695     34696     34697     34696     34698     34699     34700
     34699     34701     34702     34703     34702     34704     34705     34706
     34705     34707     34708     34709     34708     34710     34711     34712
     34711     34713     34714     34715     34714     34716     34717     34718
     34717     34719     34720     34721     34720     34722     34723     34724
     34723     34725     34726     34727     34726     34728     34729     34730
     34729     34731     34732     34733     34732     34734     34735     34736
     34735     34737     34738     34739     34738     34740     34741     34742
     34741     34743     34744     34745     34744     34746     34747     34748
     34747     34749     34750     34751     34750     34752     34753     34754
     34753     34755     34756     34757     34756     34758     34759     34760
     34759     34761     34762     34763     34762     34764     34765     34766
     34765     34767     34768     34769     34768     34770     34771     34772
     34771     34773     34774     34775     34774     34776     34777     34778
     34777     34779     34780     34781     34780     34782     34783     34784
     34783     34785     34786     34787     34786     34788     34789     34790
     34789     34791     34792     34793     34792     34794     34795     34796
     34795     34797     34798     34799     34798     34800     34801     34802
     34801     34803     34804     34805     34804     34806     34807     34808
     34807     34809     34810     34811     34810     34812     34813     34814
     34813     34815     34816     34817     34816     34818     34819     34820
     34819     34821     34822     34823     34822     34824     34825     34826
     34825     34827     34828     34829     34828     34830     34831     34832
     34831     34833     34834     34835     34834     34836     34837     34838
     34837     34839     34840     34841     34840     34842     34843     34844
     34843     34845     34846     34847     34846     34848     34849     34850
     34849     34851     34852     34853     34852     34854     34855     34856
     34855     34857     34858     34859     34858     34860     34861     34862
     34861     34863     34864     34865     34864     34866     34867     34868
     34867     34869     34870     34871     34870     34872     34873     34874
     34873     34875     34876     34877     34876     34878     34879     34880
     34879     34881     34882     34883     34882     34884     34885     34886
     34885     34887     34888     34889     34888     34890     34891     34892
     34891     34893     34894     34895     34894     34896     34897     34898
     34897     34899     34900     34901     34900     34902     34903     34904
     34903     34905     34906     34907     34906     34908     34909     34910
     34909     34911     34912     34913     34912     34914     34915     34916
     34915     34917     34918     34919     34918     34920     34921     34922
     34921     34923     34924     34925     34924     34926     34927     34928
     34927     34929     34930     34931     34930     34932     34933     34934
     34933     34935     34936     34937     34936     34938     34939     34940
     34939     34941     34942     34943     34942     34944     34945     34946
     34945     34947     34948     34949     34948     34950     34951     34952
     34951     34953     34954     34955     34954     34956     34957     34958
     34957     34959     34960     34961     34960     34962     34963     34964
     34963     34965     34966     34967     34966     34968     34969     34970
     34969     34971     34972     34973     34972     34974     34975     34976
     34975     34977     34978     34979     34978     34980     34981     34982
     34981     34983     34984     34985     34984     34986     34987     34988
     34987     34989     34990     34991     34990     34992     34993     34994
     34993     34995     34996     34997     34996     34998     34999     35000
     34999     35001     35002     35003     35002     35004     35005     35006
     35005     35007     35008     35009     35008     35010     35011     35012
     35011     35013     35014     35015     35014     35016     35017     35018
     35017     35019     35020     35021     35020     35022     35023     35024
     35023     35025     35026     35027     35026     35028     35029     35030
     35029     35031     35032     35033     35032     35034     35035     35036
     35035     35037     35038     35039     35038     35040     35041     35042
     35041     35043     35044     35045     35044     35046     35047     35048
     35047     35049     35050     35051     35050     35052     35053     35054
     35053     35055     35056     35057     35056     35058     35059     35060
     35059     35061     35062     35063     35062     35064     35065     35066
     35065     35067     35068     35069     35068     35070     35071     35072
     35071     35073     35074     35075     35074     35076     35077     35078
     35077     35079     35080     35081     35080     35082     35083     35084
     35083     35085     35086     35087     35086     35088     35089     35090
     35089     35091     35092     35093     35092     35094     35095     35096
     35095     35097     35098     35099     35098     35100     35101     35102
     35101     35103     35104     35105     35104     35106     35107     35108
     35107     35109     35110     35111     35110     35112     35113     35114
     35113     35115     35116     35117     35116     35118     35119     35120
     35119     35121     35122     35123     35122     35124     35125     35126
     35125     35127     35128     35129     35128     35130     35131     35132
     35131     35133     35134     35135     35134     35136     35137     35138
     35137     35139     35140     35141     35140     35142     35143     35144
     35143     35145     35146     35147     35146     35148     35149     35150
     35149     35151     35152     35153     35152     35154     35155     35156
     35155     35157     35158     35159     35158     35160     35161     35162
     35161     35163     35164     35165     35164     35166     35167     35168
     35167     35169     35170     35171     35170     35172     35173     35174
     35173     35175     35176     35177     35176     35178     35179     35180
     35179     35181     35182     35183     35182     35184     35185     35186
     35185     35187     35188     35189     35188     35190     35191     35192
     35191     35193     35194     35195     35194     35196     35197     35198
     35197     35199     35200     35201     35200     35202     35203     35204
     35203     35205     35206     35207     35206     35208     35209     35210
     35209     35211     35212     35213     35212     35214     35215     35216
     35215     35217     35218     35219     35218     35220     35221     35222
     35221     35223     35224     35225     35224     35226     35227     35228
     35227     35229     35230     35231     35230     35232     35233     35234
     35233     35235     35236     35237     35236     35238     35239     35240
     35239     35241     35242     35243     35242     35244     35245     35246
     35245     35247     35248     35249     35248     35250     35251     35252
     35251     35253     35254     35255     35254     35256     35257     35258
     35257     35259     35260     35261     35260     35262     35263     35264
     35263     35265     35266     35267     35266     35268     35269     35270
     35269     35271     35272     35273     35272     35274     35275     35276
     35275     35277     35278     35279     35278     35280     35281     35282
     35281     35283     35284     35285     35284     35286     35287     35288
     35287     35289     35290     35291     35290     35292     35293     35294
     35293     35295     35296     35297     35296     35298     35299     35300
     35299     35301     35302     35303     35302     35304     35305     35306
     35305     35307     35308     35309     35308     35310     35311     35312
     35311     35313     35314     35315     35314     35316     35317     35318
     35317     35319     35320     35321     35320     35322     35323     35324
     35323     35325     35326     35327     35326     35328     35329     35330
     35329     35331     35332     35333     35332     35334     35335     35336
     35335     35337     35338     35339     35338     35340     35341     35342
     35341     35343     35344     35345     35344     35346     35347     35348
     35347     35349     35350     35351     35350     35352     35353     35354
     35353     35355     35356     35357     35356     35358     35359     35360
     35359     35361     35362     35363     35362     35364     35365     35366
     35365     35367     35368     35369     35368     35370     35371     35372
     35371     35373     35374     35375     35374     35376     35377     35378
     35377     35379     35380     35381     35380     35382     35383     35384
     35383     35385     35386     35387     35386     35388     35389     35390
     35389     35391     35392     35393     35392     35394     35395     35396
     35395     35397     35398     35399     35398     35400     35401     35402
     35401     35403     35404     35405     35404     35406     35407     35408
     35407     35409     35410     35411     35410     35412     35413     35414
     35413     35415     35416     35417     35416     35418     35419     35420
     35419     35421     35422     35423     35422     35424     35425     35426
     35425     35427     35428     35429     35428     35430     35431     35432
     35431     35433     35434     35435     35434     35436     35437     35438
     35437     35439     35440     35441     35440     35442     35443     35444
     35443     35445     35446     35447     35446     35448     35449     35450
     35449     35451     35452     35453     35452     35454     35455     35456
     35455     35457     35458     35459     35458     35460     35461     35462
     35461     35463     35464     35465     35464     35466     35467     35468
     35467     35469     35470     35471     35470     35472     35473     35474
     35473     35475     35476     35477     35476     35478     35479     35480
     35479     35481     35482     35483     35482     35484     35485     35486
     35485     35487     35488     35489     35488     35490     35491     35492
     35491     35493     35494     35495     35494     35496     35497     35498
     35497     35499     35500     35501     35500     35502     35503     35504
     35503     35505     35506     35507     35506     35508     35509     35510
     35509     35511     35512     35513     35512     35514     35515     35516
     35515     35517     35518     35519     35518     35520     35521     35522
     35521     35523     35524     35525     35524     35526     35527     35528
     35527     35529     35530     35531     35530     35532     35533     35534
     35533     35535     35536     35537     35536     35538     35539     35540
     35539     35541     35542     35543     35542     35544     35545     35546
     35545     35547     35548     35549     35548     35550     35551     35552
     35551     35553     35554     35555     35554     35556     35557     35558
     35557     35559     35560     35561     35560     35562     35563     35564
     35563     35565     35566     35567     35566     35568     35569     35570
     35569     35571     35572     35573     35572     35574     35575     35576
     35575     35577     35578     35579     35578     35580     35581     35582
     35581     35583     35584     35585     35584     35586     35587     35588
     35587     35589     35590     35591     35590     35592     35593     35594
     35593     35595     35596     35597     35596     35598     35599     35600
     35599     35601     35602     35603     35602     35604     35605     35606
     35605     35607     35608     35609     35608     35610     35611     35612
     35611     35613     35614     35615     35614     35616     35617     35618
     35617     35619     35620     35621     35620     35622     35623     35624
     35623     35625     35626     35627     35626     35628     35629     35630
     35629     35631     35632     35633     35632     35634     35635     35636
     35635     35637     35638     35639     35638     35640     35641     35642
     35641     35643     35644     35645     35644     35646     35647     35648
     35647     35649     35650     35651     35650     35652     35653     35654
     35653     35655     35656     35657     35656     35658     35659     35660
     35659     35661     35662     35663     35662     35664     35665     35666
     35665     35667     35668     35669     35668     35670     35671     35672
     35671     35673     35674     35675     35674     35676     35677     35678
     35677     35679     35680     35681     35680     35682     35683     35684
     35683     35685     35686     35687     35686     35688     35689     35690
     35689     35691     35692     35693     35692     35694     35695     35696
     35695     35697     35698     35699     35698     35700     35701     35702
     35701     35703     35704     35705     35704     35706     35707     35708
     35707     35709     35710     35711     35710     35712     35713     35714
     35713     35715     35716     35717     35716     35718     35719     35720
     35719     35721     35722     35723     35722     35724     35725     35726
     35725     35727     35728     35729     35728     35730     35731     35732
     35731     35733     35734     35735     35734     35736     35737     35738
     35737     35739     35740     35741     35740     35742     35743     35744
     35743     35745     35746     35747     35746     35748     35749     35750
     35749     35751     35752     35753     35752     35754     35755     35756
     35755     35757     35758     35759     35758     35760     35761     35762
     35761     35763     35764     35765     35764     35766     35767     35768
     35767     35769     35770     35771     35770     35772     35773     35774
     35773     35775     35776     35777     35776     35778     35779     35780
     35779     35781     35782     35783     35782     35784     35785     35786
     35785     35787     35788     35789     35788     35790     35791     35792
     35791     35793     35794     35795     35794     35796     35797     35798
     35797     35799     35800     35801     35800     35802     35803     35804
     35803     35805     35806     35807     35806     35808     35809     35810
     35809     35811     35812     35813     35812     35814     35815     35816
     35815     35817     35818     35819     35818     35820     35821     35822
     35821     35823     35824     35825     35824     35826     35827     35828
     35827     35829     35830     35831     35830     35832     35833     35834
     35833     35835     35836     35837     35836     35838     35839     35840
     35839     35841     35842     35843     35842     35844     35845     35846
     35845     35847     35848     35849     35848     35850     35851     35852
     35851     35853     35854     35855     35854     35856     35857     35858
     35857     35859     35860     35861     35860     35862     35863     35864
     35863     35865     35866     35867     35866     35868     35869     35870
     35869     35871     35872     35873     35872     35874     35875     35876
     35875     35877     35878     35879     35878     35880     35881     35882
     35881     35883     35884     35885     35884     35886     35887     35888
     35887     35889     35890     35891     35890     35892     35893     35894
     35893     35895     35896     35897     35896     35898     35899     35900
     35899     35901     35902     35903     35902     35904     35905     35906
     35905     35907     35908     35909     35908     35910     35911     35912
     35911     35913     35914     35915     35914     35916     35917     35918
     35917     35919     35920     35921     35920     35922     35923     35924
     35923     35925     35926     35927     35926     35928     35929     35930
     35929     35931     35932     35933     35932     35934     35935     35936
     35935     35937     35938     35939     35938     35940     35941     35942
     35941     35943     35944     35945     35944     35946     35947     35948
     35947     35949     35950     35951     35950     35952     35953     35954
     35953     35955     35956     35957     35956     35958     35959     35960
     35959     35961     35962     35963     35962     35964     35965     35966
     35965     35967     35968     35969     35968     35970     35971     35972
     35971     35973     35974     35975     35974     35976     35977     35978
     35977     35979     35980     35981     35980     35982     35983     35984
     35983     35985     35986     35987     35986     35988     35989     35990
     35989     35991     35992     35993     35992     35994     35995     35996
     35995     35997     35998     35999     35998     36000     36001     36002
     36001     36003     36004     36005     36004     36006     36007     36008
     36007     36009     36010     36011     36010     36012     36013     36014
     36013     36015     36016     36017     36016     36018     36019     36020
     36019     36021     36022     36023     36022     36024     36025     36026
     36025     36027     36028     36029     36028     36030     36031     36032
     36031     36033     36034     36035     36034     36036     36037     36038
     36037     36039     36040     36041     36040     36042     36043     36044
     36043     36045     36046     36047     36046     36048     36049     36050
     36049     36051     36052     36053     36052     36054     36055     36056
     36055     36057     36058     36059     36058     36060     36061     36062
     36061     36063     36064     36065     36064     36066     36067     36068
     36067     36069     36070     36071     36070     36072     36073     36074
     36073     36075     36076     36077     36076     36078     36079     36080
     36079     36081     36082     36083     36082     36084     36085     36086
     36085     36087     36088     36089     36088     36090     36091     36092
     36091     36093     36094     36095     36094     36096     36097     36098
     36097     36099     36100     36101     36100     36102     36103     36104
     36103     36105     36106     36107     36106     36108     36109     36110
     36109     36111     36112     36113     36112     36114     36115     36116
     36115     36117     36118     36119     36118     36120     36121     36122
     36121     36123     36124     36125     36124     36126     36127     36128
     36127     36129     36130     36131     36130     36132     36133     36134
     36133     36135     36136     36137     36136     36138     36139     36140
     36139     36141     36142     36143     36142     36144     36145     36146
     36145     36147     36148     36149     36148     36150     36151     36152
     36151     36153     36154     36155     36154     36156     36157     36158
     36157     36159     36160     36161     36160     36162     36163     36164
     36163     36165     36166     36167     36166     36168     36169     36170
     36169     36171     36172     36173     36172     36174     36175     36176
     36175     36177     36178     36179     36178     36180     36181     36182
     36181     36183     36184     36185     36184     36186     36187     36188
     36187     36189     36190     36191     36190     36192     36193     36194
     36193     36195     36196     36197     36196     36198     36199     36200
     36199     36201     36202     36203     36202     36204     36205     36206
     36205     36207     36208     36209     36208     36210     36211     36212
     36211     36213     36214     36215     36214     36216     36217     36218
     36217     36219     36220     36221     36220     36222     36223     36224
     36223     36225     36226     36227     36226     36228     36229     36230
     36229     36231     36232     36233     36232     36234     36235     36236
     36235     36237     36238     36239     36238     36240     36241     36242
     36241     36243     36244     36245     36244     36246     36247     36248
     36247     36249     36250     36251     36250     36252     36253     36254
     36253     36255     36256     36257     36256     36258     36259     36260
     36259     36261     36262     36263     36262     36264     36265     36266
     36265     36267     36268     36269     36268     36270     36271     36272
     36271     36273     36274     36275     36274     36276     36277     36278
     36277     36279     36280     36281     36280     36282     36283     36284
     36283     36285     36286     36287     36286     36288     36289     36290
     36289     36291     36292     36293     36292     36294     36295     36296
     36295     36297     36298     36299     36298     36300     36301     36302
     36301     36303     36304     36305     36304     36306     36307     36308
     36307     36309     36310     36311     36310     36312     36313     36314
     36313     36315     36316     36317     36316     36318     36319     36320
     36319     36321     36322     36323     36322     36324     36325     36326
     36325     36327     36328     36329     36328     36330     36331     36332
     36331     36333     36334     36335     36334     36336     36337     36338
     36337     36339     36340     36341     36340     36342     36343     36344
     36343     36345     36346     36347     36346     36348     36349     36350
     36349     36351     36352     36353     36352     36354     36355     36356
     36355     36357     36358     36359     36358     36360     36361     36362
     36361     36363     36364     36365     36364     36366     36367     36368
     36367     36369     36370     36371     36370     36372     36373     36374
     36373     36375     36376     36377     36376     36378     36379     36380
     36379     36381     36382     36383     36382     36384     36385     36386
     36385     36387     36388     36389     36388     36390     36391     36392
     36391     36393     36394     36395     36394     36396     36397     36398
     36397     36399     36400     36401     36400     36402     36403     36404
     36403     36405     36406     36407     36406     36408     36409     36410
     36409     36411     36412     36413     36412     36414     36415     36416
     36415     36417     36418     36419     36418     36420     36421     36422
     36421     36423     36424     36425     36424     36426     36427     36428
     36427     36429     36430     36431     36430     36432     36433     36434
     36433     36435     36436     36437     36436     36438     36439     36440
     36439     36441     36442     36443     36442     36444     36445     36446
     36445     36447     36448     36449     36448     36450     36451     36452
     36451     36453     36454     36455     36454     36456     36457     36458
     36457     36459     36460     36461     36460     36462     36463     36464
     36463     36465     36466     36467     36466     36468     36469     36470
     36469     36471     36472     36473     36472     36474     36475     36476
     36475     36477     36478     36479     36478     36480     36481     36482
     36481     36483     36484     36485     36484     36486     36487     36488
     36487     36489     36490     36491     36490     36492     36493     36494
     36493     36495     36496     36497     36496     36498     36499     36500
     36499     36501     36502     36503     36502     36504     36505     36506
     36505     36507     36508     36509     36508     36510     36511     36512
     36511     36513     36514     36515     36514     36516     36517     36518
     36517     36519     36520     36521     36520     36522     36523     36524
     36523     36525     36526     36527     36526     36528     36529     36530
     36529     36531     36532     36533     36532     36534     36535     36536
     36535     36537     36538     36539     36538     36540     36541     36542
     36541     36543     36544     36545     36544     36546     36547     36548
     36547     36549     36550     36551     36550     36552     36553     36554
     36553     36555     36556     36557     36556     36558     36559     36560
     36559     36561     36562     36563     36562     36564     36565     36566
     36565     36567     36568     36569     36568     36570     36571     36572
     36571     36573     36574     36575     36574     36576     36577     36578
     36577     36579     36580     36581     36580     36582     36583     36584
     36583     36585     36586     36587     36586     36588     36589     36590
     36589     36591     36592     36593     36592     36594     36595     36596
     36595     36597     36598     36599     36598     36600     36601     36602
     36601     36603     36604     36605     36604     36606     36607     36608
     36607     36609     36610     36611     36610     36612     36613     36614
     36613     36615     36616     36617     36616     36618     36619     36620
     36619     36621     36622     36623     36622     36624     36625     36626
     36625     36627     36628     36629     36628     36630     36631     36632
     36631     36633     36634     36635     36634     36636     36637     36638
     36637     36639     36640     36641     36640     36642     36643     36644
     36643     36645     36646     36647     36646     36648     36649     36650
     36649     36651     36652     36653     36652     36654     36655     36656
     36655     36657     36658     36659     36658     36660     36661     36662
     36661     36663     36664     36665     36664     36666     36667     36668
     36667     36669     36670     36671     36670     36672     36673     36674
     36673     36675     36676     36677     36676     36678     36679     36680
     36679     36681     36682     36683     36682     36684     36685     36686
     36685     36687     36688     36689     36688     36690     36691     36692
     36691     36693     36694     36695     36694     36696     36697     36698
     36697     36699     36700     36701     36700     36702     36703     36704
     36703     36705     36706     36707     36706     36708     36709     36710
     36709     36711     36712     36713     36712     36714     36715     36716
     36715     36717     36718     36719     36718     36720     36721     36722
     36721     36723     36724     36725     36724     36726     36727     36728
     36727     36729     36730     36731     36730     36732     36733     36734
     36733     36735     36736     36737     36736     36738     36739     36740
     36739     36741     36742     36743     36742     36744     36745     36746
     36745     36747     36748     36749     36748     36750     36751     36752
     36751     36753     36754     36755     36754     36756     36757     36758
     36757     36759     36760     36761     36760     36762     36763     36764
     36763     36765     36766     36767     36766     36768     36769     36770
     36769     36771     36772     36773     36772     36774     36775     36776
     36775     36777     36778     36779     36778     36780     36781     36782
     36781     36783     36784     36785     36784     36786     36787     36788
     36787     36789     36790     36791     36790     36792     36793     36794
     36793     36795     36796     36797     36796     36798     36799     36800
     36799     36801     36802     36803     36802     36804     36805     36806
     36805     36807     36808     36809     36808     36810     36811     36812
     36811     36813     36814     36815     36814     36816     36817     36818
     36817     36819     36820     36821     36820     36822     36823     36824
     36823     36825     36826     36827     36826     36828     36829     36830
     36829     36831     36832     36833     36832     36834     36835     36836
     36835     36837     36838     36839     36838     36840     36841     36842
     36841     36843     36844     36845     36844     36846     36847     36848
     36847     36849     36850     36851     36850     36852     36853     36854
     36853     36855     36856     36857     36856     36858     36859     36860
     36859     36861     36862     36863     36862     36864     36865     36866
     36865     36867     36868     36869     36868     36870     36871     36872
     36871     36873     36874     36875     36874     36876     36877     36878
     36877     36879     36880     36881     36880     36882     36883     36884
     36883     36885     36886     36887     36886     36888     36889     36890
     36889     36891     36892     36893     36892     36894     36895     36896
     36895     36897     36898     36899     36898     36900     36901     36902
     36901     36903     36904     36905     36904     36906     36907     36908
     36907     36909     36910     36911     36910     36912     36913     36914
     36913     36915     36916     36917     36916     36918     36919     36920
     36919     36921     36922     36923     36922     36924     36925     36926
     36925     36927     36928     36929     36928     36930     36931     36932
     36931     36933     36934     36935     36934     36936     36937     36938
     36937     36939     36940     36941     36940     36942     36943     36944
     36943     36945     36946     36947     36946     36948     36949     36950
     36949     36951     36952     36953     36952     36954     36955     36956
     36955     36957     36958     36959     36958     36960     36961     36962
     36961     36963     36964     36965     36964     36966     36967     36968
     36967     36969     36970     36971     36970     36972     36973     36974
     36973     36975     36976     36977     36976     36978     36979     36980
     36979     36981     36982     36983     36982     36984     36985     36986
     36985     36987     36988     36989     36988     36990     36991     36992
     36991     36993     36994     36995     36994     36996     36997     36998
     36997     36999     37000     37001     37000     37002     37003     37004
     37003     37005     37006     37007     37006     37008     37009     37010
     37009     37011     37012     37013     37012     37014     37015     37016
     37015     37017     37018     37019     37018     37020     37021     37022
     37021     37023     37024     37025     37024     37026     37027     37028
     37027     37029     37030     37031     37030     37032     37033     37034
     37033     37035     37036     37037     37036     37038     37039     37040
     37039     37041     37042     37043     37042     37044     37045     37046
     37045     37047     37048     37049     37048     37050     37051     37052
     37051     37053     37054     37055     37054     37056     37057     37058
     37057     37059     37060     37061     37060     37062     37063     37064
     37063     37065     37066     37067     37066     37068     37069     37070
     37069     37071     37072     37073     37072     37074     37075     37076
     37075     37077     37078     37079     37078     37080     37081     37082
     37081     37083     37084     37085     37084     37086     37087     37088
     37087     37089     37090     37091     37090     37092     37093     37094
     37093     37095     37096     37097     37096     37098     37099     37100
     37099     37101     37102     37103     37102     37104     37105     37106
     37105     37107     37108     37109     37108     37110     37111     37112
     37111     37113     37114     37115     37114     37116     37117     37118
     37117     37119     37120     37121     37120     37122     37123     37124
     37123     37125     37126     37127     37126     37128     37129     37130
     37129     37131     37132     37133     37132     37134     37135     37136
     37135     37137     37138     37139     37138     37140     37141     37142
     37141     37143     37144     37145     37144     37146     37147     37148
     37147     37149     37150     37151     37150     37152     37153     37154
     37153     37155     37156     37157     37156     37158     37159     37160
     37159     37161     37162     37163     37162     37164     37165     37166
     37165     37167     37168     37169     37168     37170     37171     37172
     37171     37173     37174     37175     37174     37176     37177     37178
     37177     37179     37180     37181     37180     37182     37183     37184
     37183     37185     37186     37187     37186     37188     37189     37190
     37189     37191     37192     37193     37192     37194     37195     37196
     37195     37197     37198     37199     37198     37200     37201     37202
     37201     37203     37204     37205     37204     37206     37207     37208
     37207     37209     37210     37211     37210     37212     37213     37214
     37213     37215     37216     37217     37216     37218     37219     37220
     37219     37221     37222     37223     37222     37224     37225     37226
     37225     37227     37228     37229     37228     37230     37231     37232
     37231     37233     37234     37235     37234     37236     37237     37238
     37237     37239     37240     37241     37240     37242     37243     37244
     37243     37245     37246     37247     37246     37248     37249     37250
     37249     37251     37252     37253     37252     37254     37255     37256
     37255     37257     37258     37259     37258     37260     37261     37262
     37261     37263     37264     37265     37264     37266     37267     37268
     37267     37269     37270     37271     37270     37272     37273     37274
     37273     37275     37276     37277     37276     37278     37279     37280
     37279     37281     37282     37283     37282     37284     37285     37286
     37285     37287     37288     37289     37288     37290     37291     37292
     37291     37293     37294     37295     37294     37296     37297     37298
     37297     37299     37300     37301     37300     37302     37303     37304
     37303     37305     37306     37307     37306     37308     37309     37310
     37309     37311     37312     37313     37312     37314     37315     37316
     37315     37317     37318     37319     37318     37320     37321     37322
     37321     37323     37324     37325     37324     37326     37327     37328
     37327     37329     37330     37331     37330     37332     37333     37334
     37333     37335     37336     37337     37336     37338     37339     37340
     37339     37341     37342     37343     37342     37344     37345     37346
     37345     37347     37348     37349     37348     37350     37351     37352
     37351     37353     37354     37355     37354     37356     37357     37358
     37357     37359     37360     37361     37360     37362     37363     37364
     37363     37365     37366     37367     37366     37368     37369     37370
     37369     37371     37372     37373     37372     37374     37375     37376
     37375     37377     37378     37379     37378     37380     37381     37382
     37381     37383     37384     37385     37384     37386     37387     37388
     37387     37389     37390     37391     37390     37392     37393     37394
     37393     37395     37396     37397     37396     37398     37399     37400
     37399     37401     37402     37403     37402     37404     37405     37406
     37405     37407     37408     37409     37408     37410     37411     37412
     37411     37413     37414     37415     37414     37416     37417     37418
     37417     37419     37420     37421     37420     37422     37423     37424
     37423     37425     37426     37427     37426     37428     37429     37430
     37429     37431     37432     37433     37432     37434     37435     37436
     37435     37437     37438     37439     37438     37440     37441     37442
     37441     37443     37444     37445     37444     37446     37447     37448
     37447     37449     37450     37451     37450     37452     37453     37454
     37453     37455     37456     37457     37456     37458     37459     37460
     37459     37461     37462     37463     37462     37464     37465     37466
     37465     37467     37468     37469     37468     37470     37471     37472
     37471     37473     37474     37475     37474     37476     37477     37478
     37477     37479     37480     37481     37480     37482     37483     37484
     37483     37485     37486     37487     37486     37488     37489     37490
     37489     37491     37492     37493     37492     37494     37495     37496
     37495     37497     37498     37499     37498     37500     37501     37502
     37501     37503     37504     37505     37504     37506     37507     37508
     37507     37509     37510     37511     37510     37512     37513     37514
     37513     37515     37516     37517     37516     37518     37519     37520
     37519     37521     37522     37523     37522     37524     37525     37526
     37525     37527     37528     37529     37528     37530     37531     37532
     37531     37533     37534     37535     37534     37536     37537     37538
     37537     37539     37540     37541     37540     37542     37543     37544
     37543     37545     37546     37547     37546     37548     37549     37550
     37549     37551     37552     37553     37552     37554     37555     37556
     37555     37557     37558     37559     37558     37560     37561     37562
     37561     37563     37564     37565     37564     37566     37567     37568
     37567     37569     37570     37571     37570     37572     37573     37574
     37573     37575     37576     37577     37576     37578     37579     37580
     37579     37581     37582     37583     37582     37584     37585     37586
     37585     37587     37588     37589     37588     37590     37591     37592
     37591     37593     37594     37595     37594     37596     37597     37598
     37597     37599     37600     37601     37600     37602     37603     37604
     37603     37605     37606     37607     37606     37608     37609     37610
     37609     37611     37612     37613     37612     37614     37615     37616
     37615     37617     37618     37619     37618     37620     37621     37622
     37621     37623     37624     37625     37624     37626     37627     37628
     37627     37629     37630     37631     37630     37632     37633     37634
     37633     37635     37636     37637     37636     37638     37639     37640
     37639     37641     37642     37643     37642     37644     37645     37646
     37645     37647     37648     37649     37648     37650     37651     37652
     37651     37653     37654     37655     37654     37656     37657     37658
     37657     37659     37660     37661     37660     37662     37663     37664
     37663     37665     37666     37667     37666     37668     37669     37670
     37669     37671     37672     37673     37672     37674     37675     37676
     37675     37677     37678     37679     37678     37680     37681     37682
     37681     37683     37684     37685     37684     37686     37687     37688
     37687     37689     37690     37691     37690     37692     37693     37694
     37693     37695     37696     37697     37696     37698     37699     37700
     37699     37701     37702     37703     37702     37704     37705     37706
     37705     37707     37708     37709     37708     37710     37711     37712
     37711     37713     37714     37715     37714     37716     37717     37718
     37717     37719     37720     37721     37720     37722     37723     37724
     37723     37725     37726     37727     37726     37728     37729     37730
     37729     37731     37732     37733     37732     37734     37735     37736
     37735     37737     37738     37739     37738     37740     37741     37742
     37741     37743     37744     37745     37744     37746     37747     37748
     37747     37749     37750     37751     37750     37752     37753     37754
     37753     37755     37756     37757     37756     37758     37759     37760
     37759     37761     37762     37763     37762     37764     37765     37766
     37765     37767     37768     37769     37768     37770     37771     37772
     37771     37773     37774     37775     37774     37776     37777     37778
     37777     37779     37780     37781     37780     37782     37783     37784
     37783     37785     37786     37787     37786     37788     37789     37790
     37789     37791     37792     37793     37792     37794     37795     37796
     37795     37797     37798     37799     37798     37800     37801     37802
     37801     37803     37804     37805     37804     37806     37807     37808
     37807     37809     37810     37811     37810     37812     37813     37814
     37813     37815     37816     37817     37816     37818     37819     37820
     37819     37821     37822     37823     37822     37824     37825     37826
     37825     37827     37828     37829     37828     37830     37831     37832
     37831     37833     37834     37835     37834     37836     37837     37838
     37837     37839     37840     37841     37840     37842     37843     37844
     37843     37845     37846     37847     37846     37848     37849     37850
     37849     37851     37852     37853     37852     37854     37855     37856
     37855     37857     37858     37859     37858     37860     37861     37862
     37861     37863     37864     37865     37864     37866     37867     37868
     37867     37869     37870     37871     37870     37872     37873     37874
     37873     37875     37876     37877     37876     37878     37879     37880
     37879     37881     37882     37883     37882     37884     37885     37886
     37885     37887     37888     37889     37888     37890     37891     37892
     37891     37893     37894     37895     37894     37896     37897     37898
     37897     37899     37900     37901     37900     37902     37903     37904
     37903     37905     37906     37907     37906     37908     37909     37910
     37909     37911     37912     37913     37912     37914     37915     37916
     37915     37917     37918     37919     37918     37920     37921     37922
     37921     37923     37924     37925     37924     37926     37927     37928
     37927     37929     37930     37931     37930     37932     37933     37934
     37933     37935     37936     37937     37936     37938     37939     37940
     37939     37941     37942     37943     37942     37944     37945     37946
     37945     37947     37948     37949     37948     37950     37951     37952
     37951     37953     37954     37955     37954     37956     37957     37958
     37957     37959     37960     37961     37960     37962     37963     37964
     37963     37965     37966     37967     37966     37968     37969     37970
     37969     37971     37972     37973     37972     37974     37975     37976
     37975     37977     37978     37979     37978     37980     37981     37982
     37981     37983     37984     37985     37984     37986     37987     37988
     37987     37989     37990     37991     37990     37992     37993     37994
     37993     37995     37996     37997     37996     37998     37999     38000
     37999     38001     38002     38003     38002     38004     38005     38006
     38005     38007     38008     38009     38008     38010     38011     38012
     38011     38013     38014     38015     38014     38016     38017     38018
     38017     38019     38020     38021     38020     38022     38023     38024
     38023     38025     38026     38027     38026     38028     38029     38030
     38029     38031     38032     38033     38032     38034     38035     38036
     38035     38037     38038     38039     38038     38040     38041     38042
     38041     38043     38044     38045     38044     38046     38047     38048
     38047     38049     38050     38051     38050     38052     38053     38054
     38053     38055     38056     38057     38056     38058     38059     38060
     38059     38061     38062     38063     38062     38064     38065     38066
     38065     38067     38068     38069     38068     38070     38071     38072
     38071     38073     38074     38075     38074     38076     38077     38078
     38077     38079     38080     38081     38080     38082     38083     38084
     38083     38085     38086     38087     38086     38088     38089     38090
     38089     38091     38092     38093     38092     38094     38095     38096
     38095     38097     38098     38099     38098     38100     38101     38102
     38101     38103     38104     38105     38104     38106     38107     38108
     38107     38109     38110     38111     38110     38112     38113     38114
     38113     38115     38116     38117     38116     38118     38119     38120
     38119     38121     38122     38123     38122     38124     38125     38126
     38125     38127     38128     38129     38128     38130     38131     38132
     38131     38133     38134     38135     38134     38136     38137     38138
     38137     38139     38140     38141     38140     38142     38143     38144
     38143     38145     38146     38147     38146     38148     38149     38150
     38149     38151     38152     38153     38152     38154     38155     38156
     38155     38157     38158     38159     38158     38160     38161     38162
     38161     38163     38164     38165     38164     38166     38167     38168
     38167     38169     38170     38171     38170     38172     38173     38174
     38173     38175     38176     38177     38176     38178     38179     38180
     38179     38181     38182     38183     38182     38184     38185     38186
     38185     38187     38188     38189     38188     38190     38191     38192
     38191     38193     38194     38195     38194     38196     38197     38198
     38197     38199     38200     38201     38200     38202     38203     38204
     38203     38205     38206     38207     38206     38208     38209     38210
     38209     38211     38212     38213     38212     38214     38215     38216
     38215     38217     38218     38219     38218     38220     38221     38222
     38221     38223     38224     38225     38224     38226     38227     38228
     38227     38229     38230     38231     38230     38232     38233     38234
     38233     38235     38236     38237     38236     38238     38239     38240
     38239     38241     38242     38243     38242     38244     38245     38246
     38245     38247     38248     38249     38248     38250     38251     38252
     38251     38253     38254     38255     38254     38256     38257     38258
     38257     38259     38260     38261     38260     38262     38263     38264
     38263     38265     38266     38267     38266     38268     38269     38270
     38269     38271     38272     38273     38272     38274     38275     38276
     38275     38277     38278     38279     38278     38280     38281     38282
     38281     38283     38284     38285     38284     38286     38287     38288
     38287     38289     38290     38291     38290     38292     38293     38294
     38293     38295     38296     38297     38296     38298     38299     38300
     38299     38301     38302     38303     38302     38304     38305     38306
     38305     38307     38308     38309     38308     38310     38311     38312
     38311     38313     38314     38315     38314     38316     38317     38318
     38317     38319     38320     38321     38320     38322     38323     38324
     38323     38325     38326     38327     38326     38328     38329     38330
     38329     38331     38332     38333     38332     38334     38335     38336
     38335     38337     38338     38339     38338     38340     38341     38342
     38341     38343     38344     38345     38344     38346     38347     38348
     38347     38349     38350     38351     38350     38352     38353     38354
     38353     38355     38356     38357     38356     38358     38359     38360
     38359     38361     38362     38363     38362     38364     38365     38366
     38365     38367     38368     38369     38368     38370     38371     38372
     38371     38373     38374     38375     38374     38376     38377     38378
     38377     38379     38380     38381     38380     38382     38383     38384
     38383     38385     38386     38387     38386     38388     38389     38390
     38389     38391     38392     38393     38392     38394     38395     38396
     38395     38397     38398     38399     38398     38400     38401     38402
     38401     38403     38404     38405     38404     38406     38407     38408
     38407     38409     38410     38411     38410     38412     38413     38414
     38413     38415     38416     38417     38416     38418     38419     38420
     38419     38421     38422     38423     38422     38424     38425     38426
     38425     38427     38428     38429     38428     38430     38431     38432
     38431     38433     38434     38435     38434     38436     38437     38438
     38437     38439     38440     38441     38440     38442     38443     38444
     38443     38445     38446     38447     38446     38448     38449     38450
     38449     38451     38452     38453     38452     38454     38455     38456
     38455     38457     38458     38459     38458     38460     38461     38462
     38461     38463     38464     38465     38464     38466     38467     38468
     38467     38469     38470     38471     38470     38472     38473     38474
     38473     38475     38476     38477     38476     38478     38479     38480
     38479     38481     38482     38483     38482     38484     38485     38486
     38485     38487     38488     38489     38488     38490     38491     38492
     38491     38493     38494     38495     38494     38496     38497     38498
     38497     38499     38500     38501     38500     38502     38503     38504
     38503     38505     38506     38507     38506     38508     38509     38510
     38509     38511     38512     38513     38512     38514     38515     38516
     38515     38517     38518     38519     38518     38520     38521     38522
     38521     38523     38524     38525     38524     38526     38527     38528
     38527     38529     38530     38531     38530     38532     38533     38534
     38533     38535     38536     38537     38536     38538     38539     38540
     38539     38541     38542     38543     38542     38544     38545     38546
     38545     38547     38548     38549     38548     38550     38551     38552
     38551     38553     38554     38555     38554     38556     38557     38558
     38557     38559     38560     38561     38560     38562     38563     38564
     38563     38565     38566     38567     38566     38568     38569     38570
     38569     38571     38572     38573     38572     38574     38575     38576
     38575     38577     38578     38579     38578     38580     38581     38582
     38581     38583     38584     38585     38584     38586     38587     38588
     38587     38589     38590     38591     38590     38592     38593     38594
     38593     38595     38596     38597     38596     38598     38599     38600
     38599     38601     38602     38603     38602     38604     38605     38606
     38605     38607     38608     38609     38608     38610     38611     38612
     38611     38613     38614     38615     38614     38616     38617     38618
     38617     38619     38620     38621     38620     38622     38623     38624
     38623     38625     38626     38627     38626     38628     38629     38630
     38629     38631     38632     38633     38632     38634     38635     38636
     38635     38637     38638     38639     38638     38640     38641     38642
     38641     38643     38644     38645     38644     38646     38647     38648
     38647     38649     38650     38651     38650     38652     38653     38654
     38653     38655     38656     38657     38656     38658     38659     38660
     38659     38661     38662     38663     38662     38664     38665     38666
     38665     38667     38668     38669     38668     38670     38671     38672
     38671     38673     38674     38675     38674     38676     38677     38678
     38677     38679     38680     38681     38680     38682     38683     38684
     38683     38685     38686     38687     38686     38688     38689     38690
     38689     38691     38692     38693     38692     38694     38695     38696
     38695     38697     38698     38699     38698     38700     38701     38702
     38701     38703     38704     38705     38704     38706     38707     38708
     38707     38709     38710     38711     38710     38712     38713     38714
     38713     38715     38716     38717     38716     38718     38719     38720
     38719     38721     38722     38723     38722     38724     38725     38726
     38725     38727     38728     38729     38728     38730     38731     38732
     38731     38733     38734     38735     38734     38736     38737     38738
     38737     38739     38740     38741     38740     38742     38743     38744
     38743     38745     38746     38747     38746     38748     38749     38750
     38749     38751     38752     38753     38752     38754     38755     38756
     38755     38757     38758     38759     38758     38760     38761     38762
     38761     38763     38764     38765     38764     38766     38767     38768
     38767     38769     38770     38771     38770     38772     38773     38774
     38773     38775     38776     38777     38776     38778     38779     38780
     38779     38781     38782     38783     38782     38784     38785     38786
     38785     38787     38788     38789     38788     38790     38791     38792
     38791     38793     38794     38795     38794     38796     38797     38798
     38797     38799     38800     38801     38800     38802     38803     38804
     38803     38805     38806     38807     38806     38808     38809     38810
     38809     38811     38812     38813     38812     38814     38815     38816
     38815     38817     38818     38819     38818     38820     38821     38822
     38821     38823     38824     38825     38824     38826     38827     38828
     38827     38829     38830     38831     38830     38832     38833     38834
     38833     38835     38836     38837     38836     38838     38839     38840
     38839     38841     38842     38843     38842     38844     38845     38846
     38845     38847     38848     38849     38848     38850     38851     38852
     38851     38853     38854     38855     38854     38856     38857     38858
     38857     38859     38860     38861     38860     38862     38863     38864
     38863     38865     38866     38867     38866     38868     38869     38870
     38869     38871     38872     38873     38872     38874     38875     38876
     38875     38877     38878     38879     38878     38880     38881     38882
     38881     38883     38884     38885     38884     38886     38887     38888
     38887     38889     38890     38891     38890     38892     38893     38894
     38893     38895     38896     38897     38896     38898     38899     38900
     38899     38901     38902     38903     38902     38904     38905     38906
     38905     38907     38908     38909     38908     38910     38911     38912
     38911     38913     38914     38915     38914     38916     38917     38918
     38917     38919     38920     38921     38920     38922     38923     38924
     38923     38925     38926     38927     38926     38928     38929     38930
     38929     38931     38932     38933     38932     38934     38935     38936
     38935     38937     38938     38939     38938     38940     38941     38942
     38941     38943     38944     38945     38944     38946     38947     38948
     38947     38949     38950     38951     38950     38952     38953     38954
     38953     38955     38956     38957     38956     38958     38959     38960
     38959     38961     38962     38963     38962     38964     38965     38966
     38965     38967     38968     38969     38968     38970     38971     38972
     38971     38973     38974     38975     38974     38976     38977     38978
     38977     38979     38980     38981     38980     38982     38983     38984
     38983     38985     38986     38987     38986     38988     38989     38990
     38989     38991     38992     38993     38992     38994     38995     38996
     38995     38997     38998     38999     38998     39000     39001     39002
     39001     39003     39004     39005     39004     39006     39007     39008
     39007     39009     39010     39011     39010     39012     39013     39014
     39013     39015     39016     39017     39016     39018     39019     39020
     39019     39021     39022     39023     39022     39024     39025     39026
     39025     39027     39028     39029     39028     39030     39031     39032
     39031     39033     39034     39035     39034     39036     39037     39038
     39037     39039     39040     39041     39040     39042     39043     39044
     39043     39045     39046     39047     39046     39048     39049     39050
     39049     39051     39052     39053     39052     39054     39055     39056
     39055     39057     39058     39059     39058     39060     39061     39062
     39061     39063     39064     39065     39064     39066     39067     39068
     39067     39069     39070     39071     39070     39072     39073     39074
     39073     39075     39076     39077     39076     39078     39079     39080
     39079     39081     39082     39083     39082     39084     39085     39086
     39085     39087     39088     39089     39088     39090     39091     39092
     39091     39093     39094     39095     39094     39096     39097     39098
     39097     39099     39100     39101     39100     39102     39103     39104
     39103     39105     39106     39107     39106     39108     39109     39110
     39109     39111     39112     39113     39112     39114     39115     39116
     39115     39117     39118     39119     39118     39120     39121     39122
     39121     39123     39124     39125     39124     39126     39127     39128
     39127     39129     39130     39131     39130     39132     39133     39134
     39133     39135     39136     39137     39136     39138     39139     39140
     39139     39141     39142     39143     39142     39144     39145     39146
     39145     39147     39148     39149     39148     39150     39151     39152
     39151     39153     39154     39155     39154     39156     39157     39158
     39157     39159     39160     39161     39160     39162     39163     39164
     39163     39165     39166     39167     39166     39168     39169     39170
     39169     39171     39172     39173     39172     39174     39175     39176
     39175     39177     39178     39179     39178     39180     39181     39182
     39181     39183     39184     39185     39184     39186     39187     39188
     39187     39189     39190     39191     39190     39192     39193     39194
     39193     39195     39196     39197     39196     39198     39199     39200
     39199     39201     39202     39203     39202     39204     39205     39206
     39205     39207     39208     39209     39208     39210     39211     39212
     39211     39213     39214     39215     39214     39216     39217     39218
     39217     39219     39220     39221     39220     39222     39223     39224
     39223     39225     39226     39227     39226     39228     39229     39230
     39229     39231     39232     39233     39232     39234     39235     39236
     39235     39237     39238     39239     39238     39240     39241     39242
     39241     39243     39244     39245     39244     39246     39247     39248
     39247     39249     39250     39251     39250     39252     39253     39254
     39253     39255     39256     39257     39256     39258     39259     39260
     39259     39261     39262     39263     39262     39264     39265     39266
     39265     39267     39268     39269     39268     39270     39271     39272
     39271     39273     39274     39275     39274     39276     39277     39278
     39277     39279     39280     39281     39280     39282     39283     39284
     39283     39285     39286     39287     39286     39288     39289     39290
     39289     39291     39292     39293     39292     39294     39295     39296
     39295     39297     39298     39299     39298     39300     39301     39302
     39301     39303     39304     39305     39304     39306     39307     39308
     39307     39309     39310     39311     39310     39312     39313     39314
     39313     39315     39316     39317     39316     39318     39319     39320
     39319     39321     39322     39323     39322     39324     39325     39326
     39325     39327     39328     39329     39328     39330     39331     39332
     39331     39333     39334     39335     39334     39336     39337     39338
     39337     39339     39340     39341     39340     39342     39343     39344
     39343     39345     39346     39347     39346     39348     39349     39350
     39349     39351     39352     39353     39352     39354     39355     39356
     39355     39357     39358     39359     39358     39360     39361     39362
     39361     39363     39364     39365     39364     39366     39367     39368
     39367     39369     39370     39371     39370     39372     39373     39374
     39373     39375     39376     39377     39376     39378     39379     39380
     39379     39381     39382     39383     39382     39384     39385     39386
     39385     39387     39388     39389     39388     39390     39391     39392
     39391     39393     39394     39395     39394     39396     39397     39398
     39397     39399     39400     39401     39400     39402     39403     39404
     39403     39405     39406     39407     39406     39408     39409     39410
     39409     39411     39412     39413     39412     39414     39415     39416
     39415     39417     39418     39419     39418     39420     39421     39422
     39421     39423     39424     39425     39424     39426     39427     39428
     39427     39429     39430     39431     39430     39432     39433     39434
     39433     39435     39436     39437     39436     39438     39439     39440
     39439     39441     39442     39443     39442     39444     39445     39446
     39445     39447     39448     39449     39448     39450     39451     39452
     39451     39453     39454     39455     39454     39456     39457     39458
     39457     39459     39460     39461     39460     39462     39463     39464
     39463     39465     39466     39467     39466     39468     39469     39470
     39469     39471     39472     39473     39472     39474     39475     39476
     39475     39477     39478     39479     39478     39480     39481     39482
     39481     39483     39484     39485     39484     39486     39487     39488
     39487     39489     39490     39491     39490     39492     39493     39494
     39493     39495     39496     39497     39496     39498     39499     39500
     39499     39501     39502     39503     39502     39504     39505     39506
     39505     39507     39508     39509     39508     39510     39511     39512
     39511     39513     39514     39515     39514     39516     39517     39518
     39517     39519     39520     39521     39520     39522     39523     39524
     39523     39525     39526     39527     39526     39528     39529     39530
     39529     39531     39532     39533     39532     39534     39535     39536
     39535     39537     39538     39539     39538     39540     39541     39542
     39541     39543     39544     39545     39544     39546     39547     39548
     39547     39549     39550     39551     39550     39552     39553     39554
     39553     39555     39556     39557     39556     39558     39559     39560
     39559     39561     39562     39563     39562     39564     39565     39566
     39565     39567     39568     39569     39568     39570     39571     39572
     39571     39573     39574     39575     39574     39576     39577     39578
     39577     39579     39580     39581     39580     39582     39583     39584
     39583     39585     39586     39587     39586     39588     39589     39590
     39589     39591     39592     39593     39592     39594     39595     39596
     39595     39597     39598     39599     39598     39600     39601     39602
     39601     39603     39604     39605     39604     39606     39607     39608
     39607     39609     39610     39611     39610     39612     39613     39614
     39613     39615     39616     39617     39616     39618     39619     39620
     39619     39621     39622     39623     39622     39624     39625     39626
     39625     39627     39628     39629     39628     39630     39631     39632
     39631     39633     39634     39635     39634     39636     39637     39638
     39637     39639     39640     39641     39640     39642     39643     39644
     39643     39645     39646     39647     39646     39648     39649     39650
     39649     39651     39652     39653     39652     39654     39655     39656
     39655     39657     39658     39659     39658     39660     39661     39662
     39661     39663     39664     39665     39664     39666     39667     39668
     39667     39669     39670     39671     39670     39672     39673     39674
     39673     39675     39676     39677     39676     39678     39679     39680
     39679     39681     39682     39683     39682     39684     39685     39686
     39685     39687     39688     39689     39688     39690     39691     39692
     39691     39693     39694     39695     39694     39696     39697     39698
     39697     39699     39700     39701     39700     39702     39703     39704
     39703     39705     39706     39707     39706     39708     39709     39710
     39709     39711     39712     39713     39712     39714     39715     39716
     39715     39717     39718     39719     39718     39720     39721     39722
     39721     39723     39724     39725     39724     39726     39727     39728
     39727     39729     39730     39731     39730     39732     39733     39734
     39733     39735     39736     39737     39736     39738     39739     39740
     39739     39741     39742     39743     39742     39744     39745     39746
     39745     39747     39748     39749     39748     39750     39751     39752
     39751     39753     39754     39755     39754     39756     39757     39758
     39757     39759     39760     39761     39760     39762     39763     39764
     39763     39765     39766     39767     39766     39768     39769     39770
     39769     39771     39772     39773     39772     39774     39775     39776
     39775     39777     39778     39779     39778     39780     39781     39782
     39781     39783     39784     39785     39784     39786     39787     39788
     39787     39789     39790     39791     39790     39792     39793     39794
     39793     39795     39796     39797     39796     39798     39799     39800
     39799     39801     39802     39803     39802     39804     39805     39806
     39805     39807     39808     39809     39808     39810     39811     39812
     39811     39813     39814     39815     39814     39816     39817     39818
     39817     39819     39820     39821     39820     39822     39823     39824
     39823     39825     39826     39827     39826     39828     39829     39830
     39829     39831     39832     39833     39832     39834     39835     39836
     39835     39837     39838     39839     39838     39840     39841     39842
     39841     39843     39844     39845     39844     39846     39847     39848
     39847     39849     39850     39851     39850     39852     39853     39854
     39853     39855     39856     39857     39856     39858     39859     39860
     39859     39861     39862     39863     39862     39864     39865     39866
     39865     39867     39868     39869     39868     39870     39871     39872
     39871     39873     39874     39875     39874     39876     39877     39878
     39877     39879     39880     39881     39880     39882     39883     39884
     39883     39885     39886     39887     39886     39888     39889     39890
     39889     39891     39892     39893     39892     39894     39895     39896
     39895     39897     39898     39899     39898     39900     39901     39902
     39901     39903     39904     39905     39904     39906     39907     39908
     39907     39909     39910     39911     39910     39912     39913     39914
     39913     39915     39916     39917     39916     39918     39919     39920
     39919     39921     39922     39923     39922     39924     39925     39926
     39925     39927     39928     39929     39928     39930     39931     39932
     39931     39933     39934     39935     39934     39936     39937     39938
     39937     39939     39940     39941     39940     39942     39943     39944
     39943     39945     39946     39947     39946     39948     39949     39950
     39949     39951     39952     39953     39952     39954     39955     39956
     39955     39957     39958     39959     39958     39960     39961     39962
     39961     39963     39964     39965     39964     39966     39967     39968
     39967     39969     39970     39971     39970     39972     39973     39974
     39973     39975     39976     39977     39976     39978     39979     39980
     39979     39981     39982     39983     39982     39984     39985     39986
     39985     39987     39988     39989     39988     39990     39991     39992
     39991     39993     39994     39995     39994     39996     39997     39998
     39997     39999     40000     40001     40000     40002     40003     40004
     40003     40005     40006     40007     40006     40008     40009     40010
     40009     40011     40012     40013     40012     40014     40015     40016
     40015     40017     40018     40019     40018     40020     40021     40022
     40021     40023     40024     40025     40024     40026     40027     40028
     40027     40029     40030     40031     40030     40032     40033     40034
     40033     40035     40036     40037     40036     40038     40039     40040
     40039     40041     40042     40043     40042     40044     40045     40046
     40045     40047     40048     40049     40048     40050     40051     40052
     40051     40053     40054     40055     40054     40056     40057     40058
     40057     40059     40060     40061     40060     40062     40063     40064
     40063     40065     40066     40067     40066     40068     40069     40070
     40069     40071     40072     40073     40072     40074     40075     40076
     40075     40077     40078     40079     40078     40080     40081     40082
     40081     40083     40084     40085     40084     40086     40087     40088
     40087     40089     40090     40091     40090     40092     40093     40094
     40093     40095     40096     40097     40096     40098     40099     40100
     40099     40101     40102     40103     40102     40104     40105     40106
     40105     40107     40108     40109     40108     40110     40111     40112
     40111     40113     40114     40115     40114     40116     40117     40118
     40117     40119     40120     40121     40120     40122     40123     40124
     40123     40125     40126     40127     40126     40128     40129     40130
     40129     40131     40132     40133     40132     40134     40135     40136
     40135     40137     40138     40139     40138     40140     40141     40142
     40141     40143     40144     40145     40144     40146     40147     40148
     40147     40149     40150     40151     40150     40152     40153     40154
     40153     40155     40156     40157     40156     40158     40159     40160
     40159     40161     40162     40163     40162     40164     40165     40166
     40165     40167     40168     40169     40168     40170     40171     40172
     40171     40173     40174     40175     40174     40176     40177     40178
     40177     40179     40180     40181     40180     40182     40183     40184
     40183     40185     40186     40187     40186     40188     40189     40190
     40189     40191     40192     40193     40192     40194     40195     40196
     40195     40197     40198     40199     40198     40200     40201     40202
     40201     40203     40204     40205     40204     40206     40207     40208
     40207     40209     40210     40211     40210     40212     40213     40214
     40213     40215     40216     40217     40216     40218     40219     40220
     40219     40221     40222     40223     40222     40224     40225     40226
     40225     40227     40228     40229     40228     40230     40231     40232
     40231     40233     40234     40235     40234     40236     40237     40238
     40237     40239     40240     40241     40240     40242     40243     40244
     40243     40245     40246     40247     40246     40248     40249     40250
     40249     40251     40252     40253     40252     40254     40255     40256
     40255     40257     40258     40259     40258     40260     40261     40262
     40261     40263     40264     40265     40264     40266     40267     40268
     40267     40269     40270     40271     40270     40272     40273     40274
     40273     40275     40276     40277     40276     40278     40279     40280
     40279     40281     40282     40283     40282     40284     40285     40286
     40285     40287     40288     40289     40288     40290     40291     40292
     40291     40293     40294     40295     40294     40296     40297     40298
     40297     40299     40300     40301     40300     40302     40303     40304
     40303     40305     40306     40307     40306     40308     40309     40310
     40309     40311     40312     40313     40312     40314     40315     40316
     40315     40317     40318     40319     40318     40320     40321     40322
     40321     40323     40324     40325     40324     40326     40327     40328
     40327     40329     40330     40331     40330     40332     40333     40334
     40333     40335     40336     40337     40336     40338     40339     40340
     40339     40341     40342     40343     40342     40344     40345     40346
     40345     40347     40348     40349     40348     40350     40351     40352
     40351     40353     40354     40355     40354     40356     40357     40358
     40357     40359     40360     40361     40360     40362     40363     40364
     40363     40365     40366     40367     40366     40368     40369     40370
     40369     40371     40372     40373     40372     40374     40375     40376
     40375     40377     40378     40379     40378     40380     40381     40382
     40381     40383     40384     40385     40384     40386     40387     40388
     40387     40389     40390     40391     40390     40392     40393     40394
     40393     40395     40396     40397     40396     40398     40399     40400
     40399     40401     40402     40403     40402     40404     40405     40406
     40405     40407     40408     40409     40408     40410     40411     40412
     40411     40413     40414     40415     40414     40416     40417     40418
     40417     40419     40420     40421     40420     40422     40423     40424
     40423     40425     40426     40427     40426     40428     40429     40430
     40429     40431     40432     40433     40432     40434     40435     40436
     40435     40437     40438     40439     40438     40440     40441     40442
     40441     40443     40444     40445     40444     40446     40447     40448
     40447     40449     40450     40451     40450     40452     40453     40454
     40453     40455     40456     40457     40456     40458     40459     40460
     40459     40461     40462     40463     40462     40464     40465     40466
     40465     40467     40468     40469     40468     40470     40471     40472
     40471     40473     40474     40475     40474     40476     40477     40478
     40477     40479     40480     40481     40480     40482     40483     40484
     40483     40485     40486     40487     40486     40488     40489     40490
     40489     40491     40492     40493     40492     40494     40495     40496
     40495     40497     40498     40499     40498     40500     40501     40502
     40501     40503     40504     40505     40504     40506     40507     40508
     40507     40509     40510     40511     40510     40512     40513     40514
     40513     40515     40516     40517     40516     40518     40519     40520
     40519     40521     40522     40523     40522     40524     40525     40526
     40525     40527     40528     40529     40528     40530     40531     40532
     40531     40533     40534     40535     40534     40536     40537     40538
     40537     40539     40540     40541     40540     40542     40543     40544
     40543     40545     40546     40547     40546     40548     40549     40550
     40549     40551     40552     40553     40552     40554     40555     40556
     40555     40557     40558     40559     40558     40560     40561     40562
     40561     40563     40564     40565     40564     40566     40567     40568
     40567     40569     40570     40571     40570     40572     40573     40574
     40573     40575     40576     40577     40576     40578     40579     40580
     40579     40581     40582     40583     40582     40584     40585     40586
     40585     40587     40588     40589     40588     40590     40591     40592
     40591     40593     40594     40595     40594     40596     40597     40598
     40597     40599     40600     40601     40600     40602     40603     40604
     40603     40605     40606     40607     40606     40608     40609     40610
     40609     40611     40612     40613     40612     40614     40615     40616
     40615     40617     40618     40619     40618     40620     40621     40622
     40621     40623     40624     40625     40624     40626     40627     40628
     40627     40629     40630     40631     40630     40632     40633     40634
     40633     40635     40636     40637     40636     40638     40639     40640
     40639     40641     40642     40643     40642     40644     40645     40646
     40645     40647     40648     40649     40648     40650     40651     40652
     40651     40653     40654     40655     40654     40656     40657     40658
     40657     40659     40660     40661     40660     40662     40663     40664
     40663     40665     40666     40667     40666     40668     40669     40670
     40669     40671     40672     40673     40672     40674     40675     40676
     40675     40677     40678     40679     40678     40680     40681     40682
     40681     40683     40684     40685     40684     40686     40687     40688
     40687     40689     40690     40691     40690     40692     40693     40694
     40693     40695     40696     40697     40696     40698     40699     40700
     40699     40701     40702     40703     40702     40704     40705     40706
     40705     40707     40708     40709     40708     40710     40711     40712
     40711     40713     40714     40715     40714     40716     40717     40718
     40717     40719     40720     40721     40720     40722     40723     40724
     40723     40725     40726     40727     40726     40728     40729     40730
     40729     40731     40732     40733     40732     40734     40735     40736
     40735     40737     40738     40739     40738     40740     40741     40742
     40741     40743     40744     40745     40744     40746     40747     40748
     40747     40749     40750     40751     40750     40752     40753     40754
     40753     40755     40756     40757     40756     40758     40759     40760
     40759     40761     40762     40763     40762     40764     40765     40766
     40765     40767     40768     40769     40768     40770     40771     40772
     40771     40773     40774     40775     40774     40776     40777     40778
     40777     40779     40780     40781     40780     40782     40783     40784
     40783     40785     40786     40787     40786     40788     40789     40790
     40789     40791     40792     40793     40792     40794     40795     40796
     40795     40797     40798     40799     40798     40800     40801     40802
     40801     40803     40804     40805     40804     40806     40807     40808
     40807     40809     40810     40811     40810     40812     40813     40814
     40813     40815     40816     40817     40816     40818     40819     40820
     40819     40821     40822     40823     40822     40824     40825     40826
     40825     40827     40828     40829     40828     40830     40831     40832
     40831     40833     40834     40835     40834     40836     40837     40838
     40837     40839     40840     40841     40840     40842     40843     40844
     40843     40845     40846     40847     40846     40848     40849     40850
     40849     40851     40852     40853     40852     40854     40855     40856
     40855     40857     40858     40859     40858     40860     40861     40862
     40861     40863     40864     40865     40864     40866     40867     40868
     40867     40869     40870     40871     40870     40872     40873     40874
     40873     40875     40876     40877     40876     40878     40879     40880
     40879     40881     40882     40883     40882     40884     40885     40886
     40885     40887     40888     40889     40888     40890     40891     40892
     40891     40893     40894     40895     40894     40896     40897     40898
     40897     40899     40900     40901     40900     40902     40903     40904
     40903     40905     40906     40907     40906     40908     40909     40910
     40909     40911     40912     40913     40912     40914     40915     40916
     40915     40917     40918     40919     40918     40920     40921     40922
     40921     40923     40924     40925     40924     40926     40927     40928
     40927     40929     40930     40931     40930     40932     40933     40934
     40933     40935     40936     40937     40936     40938     40939     40940
     40939     40941     40942     40943     40942     40944     40945     40946
     40945     40947     40948     40949     40948     40950     40951     40952
     40951     40953     40954     40955     40954     40956     40957     40958
     40957     40959     40960     40961     40960     40962     40963     40964
     40963     40965     40966     40967     40966     40968     40969     40970
     40969     40971     40972     40973     40972     40974     40975     40976
     40975     40977     40978     40979     40978     40980     40981     40982
     40981     40983     40984     40985     40984     40986     40987     40988
     40987     40989     40990     40991     40990     40992     40993     40994
     40993     40995     40996     40997     40996     40998     40999     41000
     40999     41001     41002     41003     41002     41004     41005     41006
     41005     41007     41008     41009     41008     41010     41011     41012
     41011     41013     41014     41015     41014     41016     41017     41018
     41017     41019     41020     41021     41020     41022     41023     41024
     41023     41025     41026     41027     41026     41028     41029     41030
     41029     41031     41032     41033     41032     41034     41035     41036
     41035     41037     41038     41039     41038     41040     41041     41042
     41041     41043     41044     41045     41044     41046     41047     41048
     41047     41049     41050     41051     41050     41052     41053     41054
     41053     41055     41056     41057     41056     41058     41059     41060
     41059     41061     41062     41063     41062     41064     41065     41066
     41065     41067     41068     41069     41068     41070     41071     41072
     41071     41073     41074     41075     41074     41076     41077     41078
     41077     41079     41080     41081     41080     41082     41083     41084
     41083     41085     41086     41087     41086     41088     41089     41090
     41089     41091     41092     41093     41092     41094     41095     41096
     41095     41097     41098     41099     41098     41100     41101     41102
     41101     41103     41104     41105     41104     41106     41107     41108
     41107     41109     41110     41111     41110     41112     41113     41114
     41113     41115     41116     41117     41116     41118     41119     41120
     41119     41121     41122     41123     41122     41124     41125     41126
     41125     41127     41128     41129     41128     41130     41131     41132
     41131     41133     41134     41135     41134     41136     41137     41138
     41137     41139     41140     41141     41140     41142     41143     41144
     41143     41145     41146     41147     41146     41148     41149     41150
     41149     41151     41152     41153     41152     41154     41155     41156
     41155     41157     41158     41159     41158     41160     41161     41162
     41161     41163     41164     41165     41164     41166     41167     41168
     41167     41169     41170     41171     41170     41172     41173     41174
     41173     41175     41176     41177     41176     41178     41179     41180
     41179     41181     41182     41183     41182     41184     41185     41186
     41185     41187     41188     41189     41188     41190     41191     41192
     41191     41193     41194     41195     41194     41196     41197     41198
     41197     41199     41200     41201     41200     41202     41203     41204
     41203     41205     41206     41207     41206     41208     41209     41210
     41209     41211     41212     41213     41212     41214     41215     41216
     41215     41217     41218     41219     41218     41220     41221     41222
     41221     41223     41224     41225     41224     41226     41227     41228
     41227     41229     41230     41231     41230     41232     41233     41234
     41233     41235     41236     41237     41236     41238     41239     41240
     41239     41241     41242     41243     41242     41244     41245     41246
     41245     41247     41248     41249     41248     41250     41251     41252
     41251     41253     41254     41255     41254     41256     41257     41258
     41257     41259     41260     41261     41260     41262     41263     41264
     41263     41265     41266     41267     41266     41268     41269     41270
     41269     41271     41272     41273     41272     41274     41275     41276
     41275     41277     41278     41279     41278     41280     41281     41282
     41281     41283     41284     41285     41284     41286     41287     41288
     41287     41289     41290     41291     41290     41292     41293     41294
     41293     41295     41296     41297     41296     41298     41299     41300
     41299     41301     41302     41303     41302     41304     41305     41306
     41305     41307     41308     41309     41308     41310     41311     41312
     41311     41313     41314     41315     41314     41316     41317     41318
     41317     41319     41320     41321     41320     41322     41323     41324
     41323     41325     41326     41327     41326     41328     41329     41330
     41329     41331     41332     41333     41332     41334     41335     41336
     41335     41337     41338     41339     41338     41340     41341     41342
     41341     41343     41344     41345     41344     41346     41347     41348
     41347     41349     41350     41351     41350     41352     41353     41354
     41353     41355     41356     41357     41356     41358     41359     41360
     41359     41361     41362     41363     41362     41364     41365     41366
     41365     41367     41368     41369     41368     41370     41371     41372
     41371     41373     41374     41375     41374     41376     41377     41378
     41377     41379     41380     41381     41380     41382     41383     41384
     41383     41385     41386     41387     41386     41388     41389     41390
     41389     41391     41392     41393     41392     41394     41395     41396
     41395     41397     41398     41399     41398     41400     41401     41402
     41401     41403     41404     41405     41404     41406     41407     41408
     41407     41409     41410     41411     41410     41412     41413     41414
     41413     41415     41416     41417     41416     41418     41419     41420
     41419     41421     41422     41423     41422     41424     41425     41426
     41425     41427     41428     41429     41428     41430     41431     41432
     41431     41433     41434     41435     41434     41436     41437     41438
     41437     41439     41440     41441     41440     41442     41443     41444
     41443     41445     41446     41447     41446     41448     41449     41450
     41449     41451     41452     41453     41452     41454     41455     41456
     41455     41457     41458     41459     41458     41460     41461     41462
     41461     41463     41464     41465     41464     41466     41467     41468
     41467     41469     41470     41471     41470     41472     41473     41474
     41473     41475     41476     41477     41476     41478     41479     41480
     41479     41481     41482     41483     41482     41484     41485     41486
     41485     41487     41488     41489     41488     41490     41491     41492
     41491     41493     41494     41495     41494     41496     41497     41498
     41497     41499     41500     41501     41500     41502     41503     41504
     41503     41505     41506     41507     41506     41508     41509     41510
     41509     41511     41512     41513     41512     41514     41515     41516
     41515     41517     41518     41519     41518     41520     41521     41522
     41521     41523     41524     41525     41524     41526     41527     41528
     41527     41529     41530     41531     41530     41532     41533     41534
     41533     41535     41536     41537     41536     41538     41539     41540
     41539     41541     41542     41543     41542     41544     41545     41546
     41545     41547     41548     41549     41548     41550     41551     41552
     41551     41553     41554     41555     41554     41556     41557     41558
     41557     41559     41560     41561     41560     41562     41563     41564
     41563     41565     41566     41567     41566     41568     41569     41570
     41569     41571     41572     41573     41572     41574     41575     41576
     41575     41577     41578     41579     41578     41580     41581     41582
     41581     41583     41584     41585     41584     41586     41587     41588
     41587     41589     41590     41591     41590     41592     41593     41594
     41593     41595     41596     41597     41596     41598     41599     41600
     41599     41601     41602     41603     41602     41604     41605     41606
     41605     41607     41608     41609     41608     41610     41611     41612
     41611     41613     41614     41615     41614     41616     41617     41618
     41617     41619     41620     41621     41620     41622     41623     41624
     41623     41625     41626     41627     41626     41628     41629     41630
     41629     41631     41632     41633     41632     41634     41635     41636
     41635     41637     41638     41639     41638     41640     41641     41642
     41641     41643     41644     41645     41644     41646     41647     41648
     41647     41649     41650     41651     41650     41652     41653     41654
     41653     41655     41656     41657     41656     41658     41659     41660
     41659     41661     41662     41663     41662     41664     41665     41666
     41665     41667     41668     41669     41668     41670     41671     41672
     41671     41673     41674     41675     41674     41676     41677     41678
     41677     41679     41680     41681     41680     41682     41683     41684
     41683     41685     41686     41687     41686     41688     41689     41690
     41689     41691     41692     41693     41692     41694     41695     41696
     41695     41697     41698     41699     41698     41700     41701     41702
     41701     41703     41704     41705     41704     41706     41707     41708
     41707     41709     41710     41711     41710     41712     41713     41714
     41713     41715     41716     41717     41716     41718     41719     41720
     41719     41721     41722     41723     41722     41724     41725     41726
     41725     41727     41728     41729     41728     41730     41731     41732
     41731     41733     41734     41735     41734     41736     41737     41738
     41737     41739     41740     41741     41740     41742     41743     41744
     41743     41745     41746     41747     41746     41748     41749     41750
     41749     41751     41752     41753     41752     41754     41755     41756
     41755     41757     41758     41759     41758     41760     41761     41762
     41761     41763     41764     41765     41764     41766     41767     41768
     41767     41769     41770     41771     41770     41772     41773     41774
     41773     41775     41776     41777     41776     41778     41779     41780
     41779     41781     41782     41783     41782     41784     41785     41786
     41785     41787     41788     41789     41788     41790     41791     41792
     41791     41793     41794     41795     41794     41796     41797     41798
     41797     41799     41800     41801     41800     41802     41803     41804
     41803     41805     41806     41807     41806     41808     41809     41810
     41809     41811     41812     41813     41812     41814     41815     41816
     41815     41817     41818     41819     41818     41820     41821     41822
     41821     41823     41824     41825     41824     41826     41827     41828
     41827     41829     41830     41831     41830     41832     41833     41834
     41833     41835     41836     41837     41836     41838     41839     41840
     41839     41841     41842     41843     41842     41844     41845     41846
     41845     41847     41848     41849     41848     41850     41851     41852
     41851     41853     41854     41855     41854     41856     41857     41858
     41857     41859     41860     41861     41860     41862     41863     41864
     41863     41865     41866     41867     41866     41868     41869     41870
     41869     41871     41872     41873     41872     41874     41875     41876
     41875     41877     41878     41879     41878     41880     41881     41882
     41881     41883     41884     41885     41884     41886     41887     41888
     41887     41889     41890     41891     41890     41892     41893     41894
     41893     41895     41896     41897     41896     41898     41899     41900
     41899     41901     41902     41903     41902     41904     41905     41906
     41905     41907     41908     41909     41908     41910     41911     41912
     41911     41913     41914     41915     41914     41916     41917     41918
     41917     41919     41920     41921     41920     41922     41923     41924
     41923     41925     41926     41927     41926     41928     41929     41930
     41929     41931     41932     41933     41932     41934     41935     41936
     41935     41937     41938     41939     41938     41940     41941     41942
     41941     41943     41944     41945     41944     41946     41947     41948
     41947     41949     41950     41951     41950     41952     41953     41954
     41953     41955     41956     41957     41956     41958     41959     41960
     41959     41961     41962     41963     41962     41964     41965     41966
     41965     41967     41968     41969     41968     41970     41971     41972
     41971     41973     41974     41975     41974     41976     41977     41978
     41977     41979     41980     41981     41980     41982     41983     41984
     41983     41985     41986     41987     41986     41988     41989     41990
     41989     41991     41992     41993     41992     41994     41995     41996
     41995     41997     41998     41999     41998     42000     42001     42002
     42001     42003     42004     42005     42004     42006     42007     42008
     42007     42009     42010     42011     42010     42012     42013     42014
     42013     42015     42016     42017     42016     42018     42019     42020
     42019     42021     42022     42023     42022     42024     42025     42026
     42025     42027     42028     42029     42028     42030     42031     42032
     42031     42033     42034     42035     42034     42036     42037     42038
     42037     42039     42040     42041     42040     42042     42043     42044
     42043     42045     42046     42047     42046     42048     42049     42050
     42049     42051     42052     42053     42052     42054     42055     42056
     42055     42057     42058     42059     42058     42060     42061     42062
     42061     42063     42064     42065     42064     42066     42067     42068
     42067     42069     42070     42071     42070     42072     42073     42074
     42073     42075     42076     42077     42076     42078     42079     42080
     42079     42081     42082     42083     42082     42084     42085     42086
     42085     42087     42088     42089     42088     42090     42091     42092
     42091     42093     42094     42095     42094     42096     42097     42098
     42097     42099     42100     42101     42100     42102     42103     42104
     42103     42105     42106     42107     42106     42108     42109     42110
     42109     42111     42112     42113     42112     42114     42115     42116
     42115     42117     42118     42119     42118     42120     42121     42122
     42121     42123     42124     42125     42124     42126     42127     42128
     42127     42129     42130     42131     42130     42132     42133     42134
     42133     42135     42136     42137     42136     42138     42139     42140
     42139     42141     42142     42143     42142     42144     42145     42146
     42145     42147     42148     42149     42148     42150     42151     42152
     42151     42153     42154     42155     42154     42156     42157     42158
     42157     42159     42160     42161     42160     42162     42163     42164
     42163     42165     42166     42167     42166     42168     42169     42170
     42169     42171     42172     42173     42172     42174     42175     42176
     42175     42177     42178     42179     42178     42180     42181     42182
     42181     42183     42184     42185     42184     42186     42187     42188
     42187     42189     42190     42191     42190     42192     42193     42194
     42193     42195     42196     42197     42196     42198     42199     42200
     42199     42201     42202     42203     42202     42204     42205     42206
     42205     42207     42208     42209     42208     42210     42211     42212
     42211     42213     42214     42215     42214     42216     42217     42218
     42217     42219     42220     42221     42220     42222     42223     42224
     42223     42225     42226     42227     42226     42228     42229     42230
     42229     42231     42232     42233     42232     42234     42235     42236
     42235     42237     42238     42239     42238     42240     42241     42242
     42241     42243     42244     42245     42244     42246     42247     42248
     42247     42249     42250     42251     42250     42252     42253     42254
     42253     42255     42256     42257     42256     42258     42259     42260
     42259     42261     42262     42263     42262     42264     42265     42266
     42265     42267     42268     42269     42268     42270     42271     42272
     42271     42273     42274     42275     42274     42276     42277     42278
     42277     42279     42280     42281     42280     42282     42283     42284
     42283     42285     42286     42287     42286     42288     42289     42290
     42289     42291     42292     42293     42292     42294     42295     42296
     42295     42297     42298     42299     42298     42300     42301     42302
     42301     42303     42304     42305     42304     42306     42307     42308
     42307     42309     42310     42311     42310     42312     42313     42314
     42313     42315     42316     42317     42316     42318     42319     42320
     42319     42321     42322     42323     42322     42324     42325     42326
     42325     42327     42328     42329     42328     42330     42331     42332
     42331     42333     42334     42335     42334     42336     42337     42338
     42337     42339     42340     42341     42340     42342     42343     42344
     42343     42345     42346     42347     42346     42348     42349     42350
     42349     42351     42352     42353     42352     42354     42355     42356
     42355     42357     42358     42359     42358     42360     42361     42362
     42361     42363     42364     42365     42364     42366     42367     42368
     42367     42369     42370     42371     42370     42372     42373     42374
     42373     42375     42376     42377     42376     42378     42379     42380
     42379     42381     42382     42383     42382     42384     42385     42386
     42385     42387     42388     42389     42388     42390     42391     42392
     42391     42393     42394     42395     42394     42396     42397     42398
     42397     42399     42400     42401     42400     42402     42403     42404
     42403     42405     42406     42407     42406     42408     42409     42410
     42409     42411     42412     42413     42412     42414     42415     42416
     42415     42417     42418     42419     42418     42420     42421     42422
     42421     42423     42424     42425     42424     42426     42427     42428
     42427     42429     42430     42431     42430     42432     42433     42434
     42433     42435     42436     42437     42436     42438     42439     42440
     42439     42441     42442     42443     42442     42444     42445     42446
     42445     42447     42448     42449     42448     42450     42451     42452
     42451     42453     42454     42455     42454     42456     42457     42458
     42457     42459     42460     42461     42460     42462     42463     42464
     42463     42465     42466     42467     42466     42468     42469     42470
     42469     42471     42472     42473     42472     42474     42475     42476
     42475     42477     42478     42479     42478     42480     42481     42482
     42481     42483     42484     42485     42484     42486     42487     42488
     42487     42489     42490     42491     42490     42492     42493     42494
     42493     42495     42496     42497     42496     42498     42499     42500
     42499     42501     42502     42503     42502     42504     42505     42506
     42505     42507     42508     42509     42508     42510     42511     42512
     42511     42513     42514     42515     42514     42516     42517     42518
     42517     42519     42520     42521     42520     42522     42523     42524
     42523     42525     42526     42527     42526     42528     42529     42530
     42529     42531     42532     42533     42532     42534     42535     42536
     42535     42537     42538     42539     42538     42540     42541     42542
     42541     42543     42544     42545     42544     42546     42547     42548
     42547     42549     42550     42551     42550     42552     42553     42554
     42553     42555     42556     42557     42556     42558     42559     42560
     42559     42561     42562     42563     42562     42564     42565     42566
     42565     42567     42568     42569     42568     42570     42571     42572
     42571     42573     42574     42575     42574     42576     42577     42578
     42577     42579     42580     42581     42580     42582     42583     42584
     42583     42585     42586     42587     42586     42588     42589     42590
     42589     42591     42592     42593     42592     42594     42595     42596
     42595     42597     42598     42599     42598     42600     42601     42602
     42601     42603     42604     42605     42604     42606     42607     42608
     42607     42609     42610     42611     42610     42612     42613     42614
     42613     42615     42616     42617     42616     42618     42619     42620
     42619     42621     42622     42623     42622     42624     42625     42626
     42625     42627     42628     42629     42628     42630     42631     42632
     42631     42633     42634     42635     42634     42636     42637     42638
     42637     42639     42640     42641     42640     42642     42643     42644
     42643     42645     42646     42647     42646     42648     42649     42650
     42649     42651     42652     42653     42652     42654     42655     42656
     42655     42657     42658     42659     42658     42660     42661     42662
     42661     42663     42664     42665     42664     42666     42667     42668
     42667     42669     42670     42671     42670     42672     42673     42674
     42673     42675     42676     42677     42676     42678     42679     42680
     42679     42681     42682     42683     42682     42684     42685     42686
     42685     42687     42688     42689     42688     42690     42691     42692
     42691     42693     42694     42695     42694     42696     42697     42698
     42697     42699     42700     42701     42700     42702     42703     42704
     42703     42705     42706     42707     42706     42708     42709     42710
     42709     42711     42712     42713     42712     42714     42715     42716
     42715     42717     42718     42719     42718     42720     42721     42722
     42721     42723     42724     42725     42724     42726     42727     42728
     42727     42729     42730     42731     42730     42732     42733     42734
     42733     42735     42736     42737     42736     42738     42739     42740
     42739     42741     42742     42743     42742     42744     42745     42746
     42745     42747     42748     42749     42748     42750     42751     42752
     42751     42753     42754     42755     42754     42756     42757     42758
     42757     42759     42760     42761     42760     42762     42763     42764
     42763     42765     42766     42767     42766     42768     42769     42770
     42769     42771     42772     42773     42772     42774     42775     42776
     42775     42777     42778     42779     42778     42780     42781     42782
     42781     42783     42784     42785     42784     42786     42787     42788
     42787     42789     42790     42791     42790     42792     42793     42794
     42793     42795     42796     42797     42796     42798     42799     42800
     42799     42801     42802     42803     42802     42804     42805     42806
     42805     42807     42808     42809     42808     42810     42811     42812
     42811     42813     42814     42815     42814     42816     42817     42818
     42817     42819     42820     42821     42820     42822     42823     42824
     42823     42825     42826     42827     42826     42828     42829     42830
     42829     42831     42832     42833     42832     42834     42835     42836
     42835     42837     42838     42839     42838     42840     42841     42842
     42841     42843     42844     42845     42844     42846     42847     42848
     42847     42849     42850     42851     42850     42852     42853     42854
     42853     42855     42856     42857     42856     42858     42859     42860
     42859     42861     42862     42863     42862     42864     42865     42866
     42865     42867     42868     42869     42868     42870     42871     42872
     42871     42873     42874     42875     42874     42876     42877     42878
     42877     42879     42880     42881     42880     42882     42883     42884
     42883     42885     42886     42887     42886     42888     42889     42890
     42889     42891     42892     42893     42892     42894     42895     42896
     42895     42897     42898     42899     42898     42900     42901     42902
     42901     42903     42904     42905     42904     42906     42907     42908
     42907     42909     42910     42911     42910     42912     42913     42914
     42913     42915     42916     42917     42916     42918     42919     42920
     42919     42921     42922     42923     42922     42924     42925     42926
     42925     42927     42928     42929     42928     42930     42931     42932
     42931     42933     42934     42935     42934     42936     42937     42938
     42937     42939     42940     42941     42940     42942     42943     42944
     42943     42945     42946     42947     42946     42948     42949     42950
     42949     42951     42952     42953     42952     42954     42955     42956
     42955     42957     42958     42959     42958     42960     42961     42962
     42961     42963     42964     42965     42964     42966     42967     42968
     42967     42969     42970     42971     42970     42972     42973     42974
     42973     42975     42976     42977     42976     42978     42979     42980
     42979     42981     42982     42983     42982     42984     42985     42986
     42985     42987     42988     42989     42988     42990     42991     42992
     42991     42993     42994     42995     42994     42996     42997     42998
     42997     42999     43000     43001     43000     43002     43003     43004
     43003     43005     43006     43007     43006     43008     43009     43010
     43009     43011     43012     43013     43012     43014     43015     43016
     43015     43017     43018     43019     43018     43020     43021     43022
     43021     43023     43024     43025     43024     43026     43027     43028
     43027     43029     43030     43031     43030     43032     43033     43034
     43033     43035     43036     43037     43036     43038     43039     43040
     43039     43041     43042     43043     43042     43044     43045     43046
     43045     43047     43048     43049     43048     43050     43051     43052
     43051     43053     43054     43055     43054     43056     43057     43058
     43057     43059     43060     43061     43060     43062     43063     43064
     43063     43065     43066     43067     43066     43068     43069     43070
     43069     43071     43072     43073     43072     43074     43075     43076
     43075     43077     43078     43079     43078     43080     43081     43082
     43081     43083     43084     43085     43084     43086     43087     43088
     43087     43089     43090     43091     43090     43092     43093     43094
     43093     43095     43096     43097     43096     43098     43099     43100
     43099     43101     43102     43103     43102     43104     43105     43106
     43105     43107     43108     43109     43108     43110     43111     43112
     43111     43113     43114     43115     43114     43116     43117     43118
     43117     43119     43120     43121     43120     43122     43123     43124
     43123     43125     43126     43127     43126     43128     43129     43130
     43129     43131     43132     43133     43132     43134     43135     43136
     43135     43137     43138     43139     43138     43140     43141     43142
     43141     43143     43144     43145     43144     43146     43147     43148
     43147     43149     43150     43151     43150     43152     43153     43154
     43153     43155     43156     43157     43156     43158     43159     43160
     43159     43161     43162     43163     43162     43164     43165     43166
     43165     43167     43168     43169     43168     43170     43171     43172
     43171     43173     43174     43175     43174     43176     43177     43178
     43177     43179     43180     43181     43180     43182     43183     43184
     43183     43185     43186     43187     43186     43188     43189     43190
     43189     43191     43192     43193     43192     43194     43195     43196
     43195     43197     43198     43199     43198     43200     43201     43202
     43201     43203     43204     43205     43204     43206     43207     43208
     43207     43209     43210     43211     43210     43212     43213     43214
     43213     43215     43216     43217     43216     43218     43219     43220
     43219     43221     43222     43223     43222     43224     43225     43226
     43225     43227     43228     43229     43228     43230     43231     43232
     43231     43233     43234     43235     43234     43236     43237     43238
     43237     43239     43240     43241     43240     43242     43243     43244
     43243     43245     43246     43247     43246     43248     43249     43250
     43249     43251     43252     43253     43252     43254     43255     43256
     43255     43257     43258     43259     43258     43260     43261     43262
     43261     43263     43264     43265     43264     43266     43267     43268
     43267     43269     43270     43271     43270     43272     43273     43274
     43273     43275     43276     43277     43276     43278     43279     43280
     43279     43281     43282     43283     43282     43284     43285     43286
     43285     43287     43288     43289     43288     43290     43291     43292
     43291     43293     43294     43295     43294     43296     43297     43298
     43297     43299     43300     43301     43300     43302     43303     43304
     43303     43305     43306     43307     43306     43308     43309     43310
     43309     43311     43312     43313     43312     43314     43315     43316
     43315     43317     43318     43319     43318     43320     43321     43322
     43321     43323     43324     43325     43324     43326     43327     43328
     43327     43329     43330     43331     43330     43332     43333     43334
     43333     43335     43336     43337     43336     43338     43339     43340
     43339     43341     43342     43343     43342     43344     43345     43346
     43345     43347     43348     43349     43348     43350     43351     43352
     43351     43353     43354     43355     43354     43356     43357     43358
     43357     43359     43360     43361     43360     43362     43363     43364
     43363     43365     43366     43367     43366     43368     43369     43370
     43369     43371     43372     43373     43372     43374     43375     43376
     43375     43377     43378     43379     43378     43380     43381     43382
     43381     43383     43384     43385     43384     43386     43387     43388
     43387     43389     43390     43391     43390     43392     43393     43394
     43393     43395     43396     43397     43396     43398     43399     43400
     43399     43401     43402     43403     43402     43404     43405     43406
     43405     43407     43408     43409     43408     43410     43411     43412
     43411     43413     43414     43415     43414     43416     43417     43418
     43417     43419     43420     43421     43420     43422     43423     43424
     43423     43425     43426     43427     43426     43428     43429     43430
     43429     43431     43432     43433     43432     43434     43435     43436
     43435     43437     43438     43439     43438     43440     43441     43442
     43441     43443     43444     43445     43444     43446     43447     43448
     43447     43449     43450     43451     43450     43452     43453     43454
     43453     43455     43456     43457     43456     43458     43459     43460
     43459     43461     43462     43463     43462     43464     43465     43466
     43465     43467     43468     43469     43468     43470     43471     43472
     43471     43473     43474     43475     43474     43476     43477     43478
     43477     43479     43480     43481     43480     43482     43483     43484
     43483     43485     43486     43487     43486     43488     43489     43490
     43489     43491     43492     43493     43492     43494     43495     43496
     43495     43497     43498     43499     43498     43500     43501     43502
     43501     43503     43504     43505     43504     43506     43507     43508
     43507     43509     43510     43511     43510     43512     43513     43514
     43513     43515     43516     43517     43516     43518     43519     43520
     43519     43521     43522     43523     43522     43524     43525     43526
     43525     43527     43528     43529     43528     43530     43531     43532
     43531     43533     43534     43535     43534     43536     43537     43538
     43537     43539     43540     43541     43540     43542     43543     43544
     43543     43545     43546     43547     43546     43548     43549     43550
     43549     43551     43552     43553     43552     43554     43555     43556
     43555     43557     43558     43559     43558     43560     43561     43562
     43561     43563     43564     43565     43564     43566     43567     43568
     43567     43569     43570     43571     43570     43572     43573     43574
     43573     43575     43576     43577     43576     43578     43579     43580
     43579     43581     43582     43583     43582     43584     43585     43586
     43585     43587     43588     43589     43588     43590     43591     43592
     43591     43593     43594     43595     43594     43596     43597     43598
     43597     43599     43600     43601     43600     43602     43603     43604
     43603     43605     43606     43607     43606     43608     43609     43610
     43609     43611     43612     43613     43612     43614     43615     43616
     43615     43617     43618     43619     43618     43620     43621     43622
     43621     43623     43624     43625     43624     43626     43627     43628
     43627     43629     43630     43631     43630     43632     43633     43634
     43633     43635     43636     43637     43636     43638     43639     43640
     43639     43641     43642     43643     43642     43644     43645     43646
     43645     43647     43648     43649     43648     43650     43651     43652
     43651     43653     43654     43655     43654     43656     43657     43658
     43657     43659     43660     43661     43660     43662     43663     43664
     43663     43665     43666     43667     43666     43668     43669     43670
     43669     43671     43672     43673     43672     43674     43675     43676
     43675     43677     43678     43679     43678     43680     43681     43682
     43681     43683     43684     43685     43684     43686     43687     43688
     43687     43689     43690     43691     43690     43692     43693     43694
     43693     43695     43696     43697     43696     43698     43699     43700
     43699     43701     43702     43703     43702     43704     43705     43706
     43705     43707     43708     43709     43708     43710     43711     43712
     43711     43713     43714     43715     43714     43716     43717     43718
     43717     43719     43720     43721     43720     43722     43723     43724
     43723     43725     43726     43727     43726     43728     43729     43730
     43729     43731     43732     43733     43732     43734     43735     43736
     43735     43737     43738     43739     43738     43740     43741     43742
     43741     43743     43744     43745     43744     43746     43747     43748
     43747     43749     43750     43751     43750     43752     43753     43754
     43753     43755     43756     43757     43756     43758     43759     43760
     43759     43761     43762     43763     43762     43764     43765     43766
     43765     43767     43768     43769     43768     43770     43771     43772
     43771     43773     43774     43775     43774     43776     43777     43778
     43777     43779     43780     43781     43780     43782     43783     43784
     43783     43785     43786     43787     43786     43788     43789     43790
     43789     43791     43792     43793     43792     43794     43795     43796
     43795     43797     43798     43799     43798     43800     43801     43802
     43801     43803     43804     43805     43804     43806     43807     43808
     43807     43809     43810     43811     43810     43812     43813     43814
     43813     43815     43816     43817     43816     43818     43819     43820
     43819     43821     43822     43823     43822     43824     43825     43826
     43825     43827     43828     43829     43828     43830     43831     43832
     43831     43833     43834     43835     43834     43836     43837     43838
     43837     43839     43840     43841     43840     43842     43843     43844
     43843     43845     43846     43847     43846     43848     43849     43850
     43849     43851     43852     43853     43852     43854     43855     43856
     43855     43857     43858     43859     43858     43860     43861     43862
     43861     43863     43864     43865     43864     43866     43867     43868
     43867     43869     43870     43871     43870     43872     43873     43874
     43873     43875     43876     43877     43876     43878     43879     43880
     43879     43881     43882     43883     43882     43884     43885     43886
     43885     43887     43888     43889     43888     43890     43891     43892
     43891     43893     43894     43895     43894     43896     43897     43898
     43897     43899     43900     43901     43900     43902     43903     43904
     43903     43905     43906     43907     43906     43908     43909     43910
     43909     43911     43912     43913     43912     43914     43915     43916
     43915     43917     43918     43919     43918     43920     43921     43922
     43921     43923     43924     43925     43924     43926     43927     43928
     43927     43929     43930     43931     43930     43932     43933     43934
     43933     43935     43936     43937     43936     43938     43939     43940
     43939     43941     43942     43943     43942     43944     43945     43946
     43945     43947     43948     43949     43948     43950     43951     43952
     43951     43953     43954     43955     43954     43956     43957     43958
     43957     43959     43960     43961     43960     43962     43963     43964
     43963     43965     43966     43967     43966     43968     43969     43970
     43969     43971     43972     43973     43972     43974     43975     43976
     43975     43977     43978     43979     43978     43980     43981     43982
     43981     43983     43984     43985     43984     43986     43987     43988
     43987     43989     43990     43991     43990     43992     43993     43994
     43993     43995     43996     43997     43996     43998     43999     44000
     43999     44001     44002     44003     44002     44004     44005     44006
     44005     44007     44008     44009     44008     44010     44011     44012
     44011     44013     44014     44015     44014     44016     44017     44018
     44017     44019     44020     44021     44020     44022     44023     44024
     44023     44025     44026     44027     44026     44028     44029     44030
     44029     44031     44032     44033     44032     44034     44035     44036
     44035     44037     44038     44039     44038     44040     44041     44042
     44041     44043     44044     44045     44044     44046     44047     44048
     44047     44049     44050     44051     44050     44052     44053     44054
     44053     44055     44056     44057     44056     44058     44059     44060
     44059     44061     44062     44063     44062     44064     44065     44066
     44065     44067     44068     44069     44068     44070     44071     44072
     44071     44073     44074     44075     44074     44076     44077     44078
     44077     44079     44080     44081     44080     44082     44083     44084
     44083     44085     44086     44087     44086     44088     44089     44090
     44089     44091     44092     44093     44092     44094     44095     44096
     44095     44097     44098     44099     44098     44100     44101     44102
     44101     44103     44104     44105     44104     44106     44107     44108
     44107     44109     44110     44111     44110     44112     44113     44114
     44113     44115     44116     44117     44116     44118     44119     44120
     44119     44121     44122     44123     44122     44124     44125     44126
     44125     44127     44128     44129     44128     44130     44131     44132
     44131     44133     44134     44135     44134     44136     44137     44138
     44137     44139     44140     44141     44140     44142     44143     44144
     44143     44145     44146     44147     44146     44148     44149     44150
     44149     44151     44152     44153     44152     44154     44155     44156
     44155     44157     44158     44159     44158     44160     44161     44162
     44161     44163     44164     44165     44164     44166     44167     44168
     44167     44169     44170     44171     44170     44172     44173     44174
     44173     44175     44176     44177     44176     44178     44179     44180
     44179     44181     44182     44183     44182     44184     44185     44186
     44185     44187     44188     44189     44188     44190     44191     44192
     44191     44193     44194     44195     44194     44196     44197     44198
     44197     44199     44200     44201     44200     44202     44203     44204
     44203     44205     44206     44207     44206     44208     44209     44210
     44209     44211     44212     44213     44212     44214     44215     44216
     44215     44217     44218     44219     44218     44220     44221     44222
     44221     44223     44224     44225     44224     44226     44227     44228
     44227     44229     44230     44231     44230     44232     44233     44234
     44233     44235     44236     44237     44236     44238     44239     44240
     44239     44241     44242     44243     44242     44244     44245     44246
     44245     44247     44248     44249     44248     44250     44251     44252
     44251     44253     44254     44255     44254     44256     44257     44258
     44257     44259     44260     44261     44260     44262     44263     44264
     44263     44265     44266     44267     44266     44268     44269     44270
     44269     44271     44272     44273     44272     44274     44275     44276
     44275     44277     44278     44279     44278     44280     44281     44282
     44281     44283     44284     44285     44284     44286     44287     44288
     44287     44289     44290     44291     44290     44292     44293     44294
     44293     44295     44296     44297     44296     44298     44299     44300
     44299     44301     44302     44303     44302     44304     44305     44306
     44305     44307     44308     44309     44308     44310     44311     44312
     44311     44313     44314     44315     44314     44316     44317     44318
     44317     44319     44320     44321     44320     44322     44323     44324
     44323     44325     44326     44327     44326     44328     44329     44330
     44329     44331     44332     44333     44332     44334     44335     44336
     44335     44337     44338     44339     44338     44340     44341     44342
     44341     44343     44344     44345     44344     44346     44347     44348
     44347     44349     44350     44351     44350     44352     44353     44354
     44353     44355     44356     44357     44356     44358     44359     44360
     44359     44361     44362     44363     44362     44364     44365     44366
     44365     44367     44368     44369     44368     44370     44371     44372
     44371     44373     44374     44375     44374     44376     44377     44378
     44377     44379     44380     44381     44380     44382     44383     44384
     44383     44385     44386     44387     44386     44388     44389     44390
     44389     44391     44392     44393     44392     44394     44395     44396
     44395     44397     44398     44399     44398     44400     44401     44402
     44401     44403     44404     44405     44404     44406     44407     44408
     44407     44409     44410     44411     44410     44412     44413     44414
     44413     44415     44416     44417     44416     44418     44419     44420
     44419     44421     44422     44423     44422     44424     44425     44426
     44425     44427     44428     44429     44428     44430     44431     44432
     44431     44433     44434     44435     44434     44436     44437     44438
     44437     44439     44440     44441     44440     44442     44443     44444
     44443     44445     44446     44447     44446     44448     44449     44450
     44449     44451     44452     44453     44452     44454     44455     44456
     44455     44457     44458     44459     44458     44460     44461     44462
     44461     44463     44464     44465     44464     44466     44467     44468
     44467     44469     44470     44471     44470     44472     44473     44474
     44473     44475     44476     44477     44476     44478     44479     44480
     44479     44481     44482     44483     44482     44484     44485     44486
     44485     44487     44488     44489     44488     44490     44491     44492
     44491     44493     44494     44495     44494     44496     44497     44498
     44497     44499     44500     44501     44500     44502     44503     44504
     44503     44505     44506     44507     44506     44508     44509     44510
     44509     44511     44512     44513     44512     44514     44515     44516
     44515     44517     44518     44519     44518     44520     44521     44522
     44521     44523     44524     44525     44524     44526     44527     44528
     44527     44529     44530     44531     44530     44532     44533     44534
     44533     44535     44536     44537     44536     44538     44539     44540
     44539     44541     44542     44543     44542     44544     44545     44546
     44545     44547     44548     44549     44548     44550     44551     44552
     44551     44553     44554     44555     44554     44556     44557     44558
     44557     44559     44560     44561     44560     44562     44563     44564
     44563     44565     44566     44567     44566     44568     44569     44570
     44569     44571     44572     44573     44572     44574     44575     44576
     44575     44577     44578     44579     44578     44580     44581     44582
     44581     44583     44584     44585     44584     44586     44587     44588
     44587     44589     44590     44591     44590     44592     44593     44594
     44593     44595     44596     44597     44596     44598     44599     44600
     44599     44601     44602     44603     44602     44604     44605     44606
     44605     44607     44608     44609     44608     44610     44611     44612
     44611     44613     44614     44615     44614     44616     44617     44618
     44617     44619     44620     44621     44620     44622     44623     44624
     44623     44625     44626     44627     44626     44628     44629     44630
     44629     44631     44632     44633     44632     44634     44635     44636
     44635     44637     44638     44639     44638     44640     44641     44642
     44641     44643     44644     44645     44644     44646     44647     44648
     44647     44649     44650     44651     44650     44652     44653     44654
     44653     44655     44656     44657     44656     44658     44659     44660
     44659     44661     44662     44663     44662     44664     44665     44666
     44665     44667     44668     44669     44668     44670     44671     44672
     44671     44673     44674     44675     44674     44676     44677     44678
     44677     44679     44680     44681     44680     44682     44683     44684
     44683     44685     44686     44687     44686     44688     44689     44690
     44689     44691     44692     44693     44692     44694     44695     44696
     44695     44697     44698     44699     44698     44700     44701     44702
     44701     44703     44704     44705     44704     44706     44707     44708
     44707     44709     44710     44711     44710     44712     44713     44714
     44713     44715     44716     44717     44716     44718     44719     44720
     44719     44721     44722     44723     44722     44724     44725     44726
     44725     44727     44728     44729     44728     44730     44731     44732
     44731     44733     44734     44735     44734     44736     44737     44738
     44737     44739     44740     44741     44740     44742     44743     44744
     44743     44745     44746     44747     44746     44748     44749     44750
     44749     44751     44752     44753     44752     44754     44755     44756
     44755     44757     44758     44759     44758     44760     44761     44762
     44761     44763     44764     44765     44764     44766     44767     44768
     44767     44769     44770     44771     44770     44772     44773     44774
     44773     44775     44776     44777     44776     44778     44779     44780
     44779     44781     44782     44783     44782     44784     44785     44786
     44785     44787     44788     44789     44788     44790     44791     44792
     44791     44793     44794     44795     44794     44796     44797     44798
     44797     44799     44800     44801     44800     44802     44803     44804
     44803     44805     44806     44807     44806     44808     44809     44810
     44809     44811     44812     44813     44812     44814     44815     44816
     44815     44817     44818     44819     44818     44820     44821     44822
     44821     44823     44824     44825     44824     44826     44827     44828
     44827     44829     44830     44831     44830     44832     44833     44834
     44833     44835     44836     44837     44836     44838     44839     44840
     44839     44841     44842     44843     44842     44844     44845     44846
     44845     44847     44848     44849     44848     44850     44851     44852
     44851     44853     44854     44855     44854     44856     44857     44858
     44857     44859     44860     44861     44860     44862     44863     44864
     44863     44865     44866     44867     44866     44868     44869     44870
     44869     44871     44872     44873     44872     44874     44875     44876
     44875     44877     44878     44879     44878     44880     44881     44882
     44881     44883     44884     44885     44884     44886     44887     44888
     44887     44889     44890     44891     44890     44892     44893     44894
     44893     44895     44896     44897     44896     44898     44899     44900
     44899     44901     44902     44903     44902     44904     44905     44906
     44905     44907     44908     44909     44908     44910     44911     44912
     44911     44913     44914     44915     44914     44916     44917     44918
     44917     44919     44920     44921     44920     44922     44923     44924
     44923     44925     44926     44927     44926     44928     44929     44930
     44929     44931     44932     44933     44932     44934     44935     44936
     44935     44937     44938     44939     44938     44940     44941     44942
     44941     44943     44944     44945     44944     44946     44947     44948
     44947     44949     44950     44951     44950     44952     44953     44954
     44953     44955     44956     44957     44956     44958     44959     44960
     44959     44961     44962     44963     44962     44964     44965     44966
     44965     44967     44968     44969     44968     44970     44971     44972
     44971     44973     44974     44975     44974     44976     44977     44978
     44977     44979     44980     44981     44980     44982     44983     44984
     44983     44985     44986     44987     44986     44988     44989     44990
     44989     44991     44992     44993     44992     44994     44995     44996
     44995     44997     44998     44999     44998     45000     45001     45002
     45001     45003     45004     45005     45004     45006     45007     45008
     45007     45009     45010     45011     45010     45012     45013     45014
     45013     45015     45016     45017     45016     45018     45019     45020
     45019     45021     45022     45023     45022     45024     45025     45026
     45025     45027     45028     45029     45028     45030     45031     45032
     45031     45033     45034     45035     45034     45036     45037     45038
     45037     45039     45040     45041     45040     45042     45043     45044
     45043     45045     45046     45047     45046     45048     45049     45050
     45049     45051     45052     45053     45052     45054     45055     45056
     45055     45057     45058     45059     45058     45060     45061     45062
     45061     45063     45064     45065     45064     45066     45067     45068
     45067     45069     45070     45071     45070     45072     45073     45074
     45073     45075     45076     45077     45076     45078     45079     45080
     45079     45081     45082     45083     45082     45084     45085     45086
     45085     45087     45088     45089     45088     45090     45091     45092
     45091     45093     45094     45095     45094     45096     45097     45098
     45097     45099     45100     45101     45100     45102     45103     45104
     45103     45105     45106     45107     45106     45108     45109     45110
     45109     45111     45112     45113     45112     45114     45115     45116
     45115     45117     45118     45119     45118     45120     45121     45122
     45121     45123     45124     45125     45124     45126     45127     45128
     45127     45129     45130     45131     45130     45132     45133     45134
     45133     45135     45136     45137     45136     45138     45139     45140
     45139     45141     45142     45143     45142     45144     45145     45146
     45145     45147     45148     45149     45148     45150     45151     45152
     45151     45153     45154     45155     45154     45156     45157     45158
     45157     45159     45160     45161     45160     45162     45163     45164
     45163     45165     45166     45167     45166     45168     45169     45170
     45169     45171     45172     45173     45172     45174     45175     45176
     45175     45177     45178     45179     45178     45180     45181     45182
     45181     45183     45184     45185     45184     45186     45187     45188
     45187     45189     45190     45191     45190     45192     45193     45194
     45193     45195     45196     45197     45196     45198     45199     45200
     45199     45201     45202     45203     45202     45204     45205     45206
     45205     45207     45208     45209     45208     45210     45211     45212
     45211     45213     45214     45215     45214     45216     45217     45218
     45217     45219     45220     45221     45220     45222     45223     45224
     45223     45225     45226     45227     45226     45228     45229     45230
     45229     45231     45232     45233     45232     45234     45235     45236
     45235     45237     45238     45239     45238     45240     45241     45242
     45241     45243     45244     45245     45244     45246     45247     45248
     45247     45249     45250     45251     45250     45252     45253     45254
     45253     45255     45256     45257     45256     45258     45259     45260
     45259     45261     45262     45263     45262     45264     45265     45266
     45265     45267     45268     45269     45268     45270     45271     45272
     45271     45273     45274     45275     45274     45276     45277     45278
     45277     45279     45280     45281     45280     45282     45283     45284
     45283     45285     45286     45287     45286     45288     45289     45290
     45289     45291     45292     45293     45292     45294     45295     45296
     45295     45297     45298     45299     45298     45300     45301     45302
     45301     45303     45304     45305     45304     45306     45307     45308
     45307     45309     45310     45311     45310     45312     45313     45314
     45313     45315     45316     45317     45316     45318     45319     45320
     45319     45321     45322     45323     45322     45324     45325     45326
     45325     45327     45328     45329     45328     45330     45331     45332
     45331     45333     45334     45335     45334     45336     45337     45338
     45337     45339     45340     45341     45340     45342     45343     45344
     45343     45345     45346     45347     45346     45348     45349     45350
     45349     45351     45352     45353     45352     45354     45355     45356
     45355     45357     45358     45359     45358     45360     45361     45362
     45361     45363     45364     45365     45364     45366     45367     45368
     45367     45369     45370     45371     45370     45372     45373     45374
     45373     45375     45376     45377     45376     45378     45379     45380
     45379     45381     45382     45383     45382     45384     45385     45386
     45385     45387     45388     45389     45388     45390     45391     45392
     45391     45393     45394     45395     45394     45396     45397     45398
     45397     45399     45400     45401     45400     45402     45403     45404
     45403     45405     45406     45407     45406     45408     45409     45410
     45409     45411     45412     45413     45412     45414     45415     45416
     45415     45417     45418     45419     45418     45420     45421     45422
     45421     45423     45424     45425     45424     45426     45427     45428
     45427     45429     45430     45431     45430     45432     45433     45434
     45433     45435     45436     45437     45436     45438     45439     45440
     45439     45441     45442     45443     45442     45444     45445     45446
     45445     45447     45448     45449     45448     45450     45451     45452
     45451     45453     45454     45455     45454     45456     45457     45458
     45457     45459     45460     45461     45460     45462     45463     45464
     45463     45465     45466     45467     45466     45468     45469     45470
     45469     45471     45472     45473     45472     45474     45475     45476
     45475     45477     45478     45479     45478     45480     45481     45482
     45481     45483     45484     45485     45484     45486     45487     45488
     45487     45489     45490     45491     45490     45492     45493     45494
     45493     45495     45496     45497     45496     45498     45499     45500
     45499     45501     45502     45503     45502     45504     45505     45506
     45505     45507     45508     45509     45508     45510     45511     45512
     45511     45513     45514     45515     45514     45516     45517     45518
     45517     45519     45520     45521     45520     45522     45523     45524
     45523     45525     45526     45527     45526     45528     45529     45530
     45529     45531     45532     45533     45532     45534     45535     45536
     45535     45537     45538     45539     45538     45540     45541     45542
     45541     45543     45544     45545     45544     45546     45547     45548
     45547     45549     45550     45551     45550     45552     45553     45554
     45553     45555     45556     45557     45556     45558     45559     45560
     45559     45561     45562     45563     45562     45564     45565     45566
     45565     45567     45568     45569     45568     45570     45571     45572
     45571     45573     45574     45575     45574     45576     45577     45578
     45577     45579     45580     45581     45580     45582     45583     45584
     45583     45585     45586     45587     45586     45588     45589     45590
     45589     45591     45592     45593     45592     45594     45595     45596
     45595     45597     45598     45599     45598     45600     45601     45602
     45601     45603     45604     45605     45604     45606     45607     45608
     45607     45609     45610     45611     45610     45612     45613     45614
     45613     45615     45616     45617     45616     45618     45619     45620
     45619     45621     45622     45623     45622     45624     45625     45626
     45625     45627     45628     45629     45628     45630     45631     45632
     45631     45633     45634     45635     45634     45636     45637     45638
     45637     45639     45640     45641     45640     45642     45643     45644
     45643     45645     45646     45647     45646     45648     45649     45650
     45649     45651     45652     45653     45652     45654     45655     45656
     45655     45657     45658     45659     45658     45660     45661     45662
     45661     45663     45664     45665     45664     45666     45667     45668
     45667     45669     45670     45671     45670     45672     45673     45674
     45673     45675     45676     45677     45676     45678     45679     45680
     45679     45681     45682     45683     45682     45684     45685     45686
     45685     45687     45688     45689     45688     45690     45691     45692
     45691     45693     45694     45695     45694     45696     45697     45698
     45697     45699     45700     45701     45700     45702     45703     45704
     45703     45705     45706     45707     45706     45708     45709     45710
     45709     45711     45712     45713     45712     45714     45715     45716
     45715     45717     45718     45719     45718     45720     45721     45722
     45721     45723     45724     45725     45724     45726     45727     45728
     45727     45729     45730     45731     45730     45732     45733     45734
     45733     45735     45736     45737     45736     45738     45739     45740
     45739     45741     45742     45743     45742     45744     45745     45746
     45745     45747     45748     45749     45748     45750     45751     45752
     45751     45753     45754     45755     45754     45756     45757     45758
     45757     45759     45760     45761     45760     45762     45763     45764
     45763     45765     45766     45767     45766     45768     45769     45770
     45769     45771     45772     45773     45772     45774     45775     45776
     45775     45777     45778     45779     45778     45780     45781     45782
     45781     45783     45784     45785     45784     45786     45787     45788
     45787     45789     45790     45791     45790     45792     45793     45794
     45793     45795     45796     45797     45796     45798     45799     45800
     45799     45801     45802     45803     45802     45804     45805     45806
     45805     45807     45808     45809     45808     45810     45811     45812
     45811     45813     45814     45815     45814     45816     45817     45818
     45817     45819     45820     45821     45820     45822     45823     45824
     45823     45825     45826     45827     45826     45828     45829     45830
     45829     45831     45832     45833     45832     45834     45835     45836
     45835     45837     45838     45839     45838     45840     45841     45842
     45841     45843     45844     45845     45844     45846     45847     45848
     45847     45849     45850     45851     45850     45852     45853     45854
     45853     45855     45856     45857     45856     45858     45859     45860
     45859     45861     45862     45863     45862     45864     45865     45866
     45865     45867     45868     45869     45868     45870     45871     45872
     45871     45873     45874     45875     45874     45876     45877     45878
     45877     45879     45880     45881     45880     45882     45883     45884
     45883     45885     45886     45887     45886     45888     45889     45890
     45889     45891     45892     45893     45892     45894     45895     45896
     45895     45897     45898     45899     45898     45900     45901     45902
     45901     45903     45904     45905     45904     45906     45907     45908
     45907     45909     45910     45911     45910     45912     45913     45914
     45913     45915     45916     45917     45916     45918     45919     45920
     45919     45921     45922     45923     45922     45924     45925     45926
     45925     45927     45928     45929     45928     45930     45931     45932
     45931     45933     45934     45935     45934     45936     45937     45938
     45937     45939     45940     45941     45940     45942     45943     45944
     45943     45945     45946     45947     45946     45948     45949     45950
     45949     45951     45952     45953     45952     45954     45955     45956
     45955     45957     45958     45959     45958     45960     45961     45962
     45961     45963     45964     45965     45964     45966     45967     45968
     45967     45969     45970     45971     45970     45972     45973     45974
     45973     45975     45976     45977     45976     45978     45979     45980
     45979     45981     45982     45983     45982     45984     45985     45986
     45985     45987     45988     45989     45988     45990     45991     45992
     45991     45993     45994     45995     45994     45996     45997     45998
     45997     45999     46000     46001     46000     46002     46003     46004
     46003     46005     46006     46007     46006     46008     46009     46010
     46009     46011     46012     46013     46012     46014     46015     46016
     46015     46017     46018     46019     46018     46020     46021     46022
     46021     46023     46024     46025     46024     46026     46027     46028
     46027     46029     46030     46031     46030     46032     46033     46034
     46033     46035     46036     46037     46036     46038     46039     46040
     46039     46041     46042     46043     46042     46044     46045     46046
     46045     46047     46048     46049     46048     46050     46051     46052
     46051     46053     46054     46055     46054     46056     46057     46058
     46057     46059     46060     46061     46060     46062     46063     46064
     46063     46065     46066     46067     46066     46068     46069     46070
     46069     46071     46072     46073     46072     46074     46075     46076
     46075     46077     46078     46079     46078     46080     46081     46082
     46081     46083     46084     46085     46084     46086     46087     46088
     46087     46089     46090     46091     46090     46092     46093     46094
     46093     46095     46096     46097     46096     46098     46099     46100
     46099     46101     46102     46103     46102     46104     46105     46106
     46105     46107     46108     46109     46108     46110     46111     46112
     46111     46113     46114     46115     46114     46116     46117     46118
     46117     46119     46120     46121     46120     46122     46123     46124
     46123     46125     46126     46127     46126     46128     46129     46130
     46129     46131     46132     46133     46132     46134     46135     46136
     46135     46137     46138     46139     46138     46140     46141     46142
     46141     46143     46144     46145     46144     46146     46147     46148
     46147     46149     46150     46151     46150     46152     46153     46154
     46153     46155     46156     46157     46156     46158     46159     46160
     46159     46161     46162     46163     46162     46164     46165     46166
     46165     46167     46168     46169     46168     46170     46171     46172
     46171     46173     46174     46175     46174     46176     46177     46178
     46177     46179     46180     46181     46180     46182     46183     46184
     46183     46185     46186     46187     46186     46188     46189     46190
     46189     46191     46192     46193     46192     46194     46195     46196
     46195     46197     46198     46199     46198     46200     46201     46202
     46201     46203     46204     46205     46204     46206     46207     46208
     46207     46209     46210     46211     46210     46212     46213     46214
     46213     46215     46216     46217     46216     46218     46219     46220
     46219     46221     46222     46223     46222     46224     46225     46226
     46225     46227     46228     46229     46228     46230     46231     46232
     46231     46233     46234     46235     46234     46236     46237     46238
     46237     46239     46240     46241     46240     46242     46243     46244
     46243     46245     46246     46247     46246     46248     46249     46250
     46249     46251     46252     46253     46252     46254     46255     46256
     46255     46257     46258     46259     46258     46260     46261     46262
     46261     46263     46264     46265     46264     46266     46267     46268
     46267     46269     46270     46271     46270     46272     46273     46274
     46273     46275     46276     46277     46276     46278     46279     46280
     46279     46281     46282     46283     46282     46284     46285     46286
     46285     46287     46288     46289     46288     46290     46291     46292
     46291     46293     46294     46295     46294     46296     46297     46298
     46297     46299     46300     46301     46300     46302     46303     46304
     46303     46305     46306     46307     46306     46308     46309     46310
     46309     46311     46312     46313     46312     46314     46315     46316
     46315     46317     46318     46319     46318     46320     46321     46322
     46321     46323     46324     46325     46324     46326     46327     46328
     46327     46329     46330     46331     46330     46332     46333     46334
     46333     46335     46336     46337     46336     46338     46339     46340
     46339     46341     46342     46343     46342     46344     46345     46346
     46345     46347     46348     46349     46348     46350     46351     46352
     46351     46353     46354     46355     46354     46356     46357     46358
     46357     46359     46360     46361     46360     46362     46363     46364
     46363     46365     46366     46367     46366     46368     46369     46370
     46369     46371     46372     46373     46372     46374     46375     46376
     46375     46377     46378     46379     46378     46380     46381     46382
     46381     46383     46384     46385     46384     46386     46387     46388
     46387     46389     46390     46391     46390     46392     46393     46394
     46393     46395     46396     46397     46396     46398     46399     46400
     46399     46401     46402     46403     46402     46404     46405     46406
     46405     46407     46408     46409     46408     46410     46411     46412
     46411     46413     46414     46415     46414     46416     46417     46418
     46417     46419     46420     46421     46420     46422     46423     46424
     46423     46425     46426     46427     46426     46428     46429     46430
     46429     46431     46432     46433     46432     46434     46435     46436
     46435     46437     46438     46439     46438     46440     46441     46442
     46441     46443     46444     46445     46444     46446     46447     46448
     46447     46449     46450     46451     46450     46452     46453     46454
     46453     46455     46456     46457     46456     46458     46459     46460
     46459     46461     46462     46463     46462     46464     46465     46466
     46465     46467     46468     46469     46468     46470     46471     46472
     46471     46473     46474     46475     46474     46476     46477     46478
     46477     46479     46480     46481     46480     46482     46483     46484
     46483     46485     46486     46487     46486     46488     46489     46490
     46489     46491     46492     46493     46492     46494     46495     46496
     46495     46497     46498     46499     46498     46500     46501     46502
     46501     46503     46504     46505     46504     46506     46507     46508
     46507     46509     46510     46511     46510     46512     46513     46514
     46513     46515     46516     46517     46516     46518     46519     46520
     46519     46521     46522     46523     46522     46524     46525     46526
     46525     46527     46528     46529     46528     46530     46531     46532
     46531     46533     46534     46535     46534     46536     46537     46538
     46537     46539     46540     46541     46540     46542     46543     46544
     46543     46545     46546     46547     46546     46548     46549     46550
     46549     46551     46552     46553     46552     46554     46555     46556
     46555     46557     46558     46559     46558     46560     46561     46562
     46561     46563     46564     46565     46564     46566     46567     46568
     46567     46569     46570     46571     46570     46572     46573     46574
     46573     46575     46576     46577     46576     46578     46579     46580
     46579     46581     46582     46583     46582     46584     46585     46586
     46585     46587     46588     46589     46588     46590     46591     46592
     46591     46593     46594     46595     46594     46596     46597     46598
     46597     46599     46600     46601     46600     46602     46603     46604
     46603     46605     46606     46607     46606     46608     46609     46610
     46609     46611     46612     46613     46612     46614     46615     46616
     46615     46617     46618     46619     46618     46620     46621     46622
     46621     46623     46624     46625     46624     46626     46627     46628
     46627     46629     46630     46631     46630     46632     46633     46634
     46633     46635     46636     46637     46636     46638     46639     46640
     46639     46641     46642     46643     46642     46644     46645     46646
     46645     46647     46648     46649     46648     46650     46651     46652
     46651     46653     46654     46655     46654     46656     46657     46658
     46657     46659     46660     46661     46660     46662     46663     46664
     46663     46665     46666     46667     46666     46668     46669     46670
     46669     46671     46672     46673     46672     46674     46675     46676
     46675     46677     46678     46679     46678     46680     46681     46682
     46681     46683     46684     46685     46684     46686     46687     46688
     46687     46689     46690     46691     46690     46692     46693     46694
     46693     46695     46696     46697     46696     46698     46699     46700
     46699     46701     46702     46703     46702     46704     46705     46706
     46705     46707     46708     46709     46708     46710     46711     46712
     46711     46713     46714     46715     46714     46716     46717     46718
     46717     46719     46720     46721     46720     46722     46723     46724
     46723     46725     46726     46727     46726     46728     46729     46730
     46729     46731     46732     46733     46732     46734     46735     46736
     46735     46737     46738     46739     46738     46740     46741     46742
     46741     46743     46744     46745     46744     46746     46747     46748
     46747     46749     46750     46751     46750     46752     46753     46754
     46753     46755     46756     46757     46756     46758     46759     46760
     46759     46761     46762     46763     46762     46764     46765     46766
     46765     46767     46768     46769     46768     46770     46771     46772
     46771     46773     46774     46775     46774     46776     46777     46778
     46777     46779     46780     46781     46780     46782     46783     46784
     46783     46785     46786     46787     46786     46788     46789     46790
     46789     46791     46792     46793     46792     46794     46795     46796
     46795     46797     46798     46799     46798     46800     46801     46802
     46801     46803     46804     46805     46804     46806     46807     46808
     46807     46809     46810     46811     46810     46812     46813     46814
     46813     46815     46816     46817     46816     46818     46819     46820
     46819     46821     46822     46823     46822     46824     46825     46826
     46825     46827     46828     46829     46828     46830     46831     46832
     46831     46833     46834     46835     46834     46836     46837     46838
     46837     46839     46840     46841     46840     46842     46843     46844
     46843     46845     46846     46847     46846     46848     46849     46850
     46849     46851     46852     46853     46852     46854     46855     46856
     46855     46857     46858     46859     46858     46860     46861     46862
     46861     46863     46864     46865     46864     46866     46867     46868
     46867     46869     46870     46871     46870     46872     46873     46874
     46873     46875     46876     46877     46876     46878     46879     46880
     46879     46881     46882     46883     46882     46884     46885     46886
     46885     46887     46888     46889     46888     46890     46891     46892
     46891     46893     46894     46895     46894     46896     46897     46898
     46897     46899     46900     46901     46900     46902     46903     46904
     46903     46905     46906     46907     46906     46908     46909     46910
     46909     46911     46912     46913     46912     46914     46915     46916
     46915     46917     46918     46919     46918     46920     46921     46922
     46921     46923     46924     46925     46924     46926     46927     46928
     46927     46929     46930     46931     46930     46932     46933     46934
     46933     46935     46936     46937     46936     46938     46939     46940
     46939     46941     46942     46943     46942     46944     46945     46946
     46945     46947     46948     46949     46948     46950     46951     46952
     46951     46953     46954     46955     46954     46956     46957     46958
     46957     46959     46960     46961     46960     46962     46963     46964
     46963     46965     46966     46967     46966     46968     46969     46970
     46969     46971     46972     46973     46972     46974     46975     46976
     46975     46977     46978     46979     46978     46980     46981     46982
     46981     46983     46984     46985     46984     46986     46987     46988
     46987     46989     46990     46991     46990     46992     46993     46994
     46993     46995     46996     46997     46996     46998     46999     47000
     46999     47001     47002     47003     47002     47004     47005     47006
     47005     47007     47008     47009     47008     47010     47011     47012
     47011     47013     47014     47015     47014     47016     47017     47018
     47017     47019     47020     47021     47020     47022     47023     47024
     47023     47025     47026     47027     47026     47028     47029     47030
     47029     47031     47032     47033     47032     47034     47035     47036
     47035     47037     47038     47039     47038     47040     47041     47042
     47041     47043     47044     47045     47044     47046     47047     47048
     47047     47049     47050     47051     47050     47052     47053     47054
     47053     47055     47056     47057     47056     47058     47059     47060
     47059     47061     47062     47063     47062     47064     47065     47066
     47065     47067     47068     47069     47068     47070     47071     47072
     47071     47073     47074     47075     47074     47076     47077     47078
     47077     47079     47080     47081     47080     47082     47083     47084
     47083     47085     47086     47087     47086     47088     47089     47090
     47089     47091     47092     47093     47092     47094     47095     47096
     47095     47097     47098     47099     47098     47100     47101     47102
     47101     47103     47104     47105     47104     47106     47107     47108
     47107     47109     47110     47111     47110     47112     47113     47114
     47113     47115     47116     47117     47116     47118     47119     47120
     47119     47121     47122     47123     47122     47124     47125     47126
     47125     47127     47128     47129     47128     47130     47131     47132
     47131     47133     47134     47135     47134     47136     47137     47138
     47137     47139     47140     47141     47140     47142     47143     47144
     47143     47145     47146     47147     47146     47148     47149     47150
     47149     47151     47152     47153     47152     47154     47155     47156
     47155     47157     47158     47159     47158     47160     47161     47162
     47161     47163     47164     47165     47164     47166     47167     47168
     47167     47169     47170     47171     47170     47172     47173     47174
     47173     47175     47176     47177     47176     47178     47179     47180
     47179     47181     47182     47183     47182     47184     47185     47186
     47185     47187     47188     47189     47188     47190     47191     47192
     47191     47193     47194     47195     47194     47196     47197     47198
     47197     47199     47200     47201     47200     47202     47203     47204
     47203     47205     47206     47207     47206     47208     47209     47210
     47209     47211     47212     47213     47212     47214     47215     47216
     47215     47217     47218     47219     47218     47220     47221     47222
     47221     47223     47224     47225     47224     47226     47227     47228
     47227     47229     47230     47231     47230     47232     47233     47234
     47233     47235     47236     47237     47236     47238     47239     47240
     47239     47241     47242     47243     47242     47244     47245     47246
     47245     47247     47248     47249     47248     47250     47251     47252
     47251     47253     47254     47255     47254     47256     47257     47258
     47257     47259     47260     47261     47260     47262     47263     47264
     47263     47265     47266     47267     47266     47268     47269     47270
     47269     47271     47272     47273     47272     47274     47275     47276
     47275     47277     47278     47279     47278     47280     47281     47282
     47281     47283     47284     47285     47284     47286     47287     47288
     47287     47289     47290     47291     47290     47292     47293     47294
     47293     47295     47296     47297     47296     47298     47299     47300
     47299     47301     47302     47303     47302     47304     47305     47306
     47305     47307     47308     47309     47308     47310     47311     47312
     47311     47313     47314     47315     47314     47316     47317     47318
     47317     47319     47320     47321     47320     47322     47323     47324
     47323     47325     47326     47327     47326     47328     47329     47330
     47329     47331     47332     47333     47332     47334     47335     47336
     47335     47337     47338     47339     47338     47340     47341     47342
     47341     47343     47344     47345     47344     47346     47347     47348
     47347     47349     47350     47351     47350     47352     47353     47354
     47353     47355     47356     47357     47356     47358     47359     47360
     47359     47361     47362     47363     47362     47364     47365     47366
     47365     47367     47368     47369     47368     47370     47371     47372
     47371     47373     47374     47375     47374     47376     47377     47378
     47377     47379     47380     47381     47380     47382     47383     47384
     47383     47385     47386     47387     47386     47388     47389     47390
     47389     47391     47392     47393     47392     47394     47395     47396
     47395     47397     47398     47399     47398     47400     47401     47402
     47401     47403     47404     47405     47404     47406     47407     47408
     47407     47409     47410     47411     47410     47412     47413     47414
     47413     47415     47416     47417     47416     47418     47419     47420
     47419     47421     47422     47423     47422     47424     47425     47426
     47425     47427     47428     47429     47428     47430     47431     47432
     47431     47433     47434     47435     47434     47436     47437     47438
     47437     47439     47440     47441     47440     47442     47443     47444
     47443     47445     47446     47447     47446     47448     47449     47450
     47449     47451     47452     47453     47452     47454     47455     47456
     47455     47457     47458     47459     47458     47460     47461     47462
     47461     47463     47464     47465     47464     47466     47467     47468
     47467     47469     47470     47471     47470     47472     47473     47474
     47473     47475     47476     47477     47476     47478     47479     47480
     47479     47481     47482     47483     47482     47484     47485     47486
     47485     47487     47488     47489     47488     47490     47491     47492
     47491     47493     47494     47495     47494     47496     47497     47498
     47497     47499     47500     47501     47500     47502     47503     47504
     47503     47505     47506     47507     47506     47508     47509     47510
     47509     47511     47512     47513     47512     47514     47515     47516
     47515     47517     47518     47519     47518     47520     47521     47522
     47521     47523     47524     47525     47524     47526     47527     47528
     47527     47529     47530     47531     47530     47532     47533     47534
     47533     47535     47536     47537     47536     47538     47539     47540
     47539     47541     47542     47543     47542     47544     47545     47546
     47545     47547     47548     47549     47548     47550     47551     47552
     47551     47553     47554     47555     47554     47556     47557     47558
     47557     47559     47560     47561     47560     47562     47563     47564
     47563     47565     47566     47567     47566     47568     47569     47570
     47569     47571     47572     47573     47572     47574     47575     47576
     47575     47577     47578     47579     47578     47580     47581     47582
     47581     47583     47584     47585     47584     47586     47587     47588
     47587     47589     47590     47591     47590     47592     47593     47594
     47593     47595     47596     47597     47596     47598     47599     47600
     47599     47601     47602     47603     47602     47604     47605     47606
     47605     47607     47608     47609     47608     47610     47611     47612
     47611     47613     47614     47615     47614     47616     47617     47618
     47617     47619     47620     47621     47620     47622     47623     47624
     47623     47625     47626     47627     47626     47628     47629     47630
     47629     47631     47632     47633     47632     47634     47635     47636
     47635     47637     47638     47639     47638     47640     47641     47642
     47641     47643     47644     47645     47644     47646     47647     47648
     47647     47649     47650     47651     47650     47652     47653     47654
     47653     47655     47656     47657     47656     47658     47659     47660
     47659     47661     47662     47663     47662     47664     47665     47666
     47665     47667     47668     47669     47668     47670     47671     47672
     47671     47673     47674     47675     47674     47676     47677     47678
     47677     47679     47680     47681     47680     47682     47683     47684
     47683     47685     47686     47687     47686     47688     47689     47690
     47689     47691     47692     47693     47692     47694     47695     47696
     47695     47697     47698     47699     47698     47700     47701     47702
     47701     47703     47704     47705     47704     47706     47707     47708
     47707     47709     47710     47711     47710     47712     47713     47714
     47713     47715     47716     47717     47716     47718     47719     47720
     47719     47721     47722     47723     47722     47724     47725     47726
     47725     47727     47728     47729     47728     47730     47731     47732
     47731     47733     47734     47735     47734     47736     47737     47738
     47737     47739     47740     47741     47740     47742     47743     47744
     47743     47745     47746     47747     47746     47748     47749     47750
     47749     47751     47752     47753     47752     47754     47755     47756
     47755     47757     47758     47759     47758     47760     47761     47762
     47761     47763     47764     47765     47764     47766     47767     47768
     47767     47769     47770     47771     47770     47772     47773     47774
     47773     47775     47776     47777     47776     47778     47779     47780
     47779     47781     47782     47783     47782     47784     47785     47786
     47785     47787     47788     47789     47788     47790     47791     47792
     47791     47793     47794     47795     47794     47796     47797     47798
     47797     47799     47800     47801     47800     47802     47803     47804
     47803     47805     47806     47807     47806     47808     47809     47810
     47809     47811     47812     47813     47812     47814     47815     47816
     47815     47817     47818     47819     47818     47820     47821     47822
     47821     47823     47824     47825     47824     47826     47827     47828
     47827     47829     47830     47831     47830     47832     47833     47834
     47833     47835     47836     47837     47836     47838     47839     47840
     47839     47841     47842     47843     47842     47844     47845     47846
     47845     47847     47848     47849     47848     47850     47851     47852
     47851     47853     47854     47855     47854     47856     47857     47858
     47857     47859     47860     47861     47860     47862     47863     47864
     47863     47865     47866     47867     47866     47868     47869     47870
     47869     47871     47872     47873     47872     47874     47875     47876
     47875     47877     47878     47879     47878     47880     47881     47882
     47881     47883     47884     47885     47884     47886     47887     47888
     47887     47889     47890     47891     47890     47892     47893     47894
     47893     47895     47896     47897     47896     47898     47899     47900
     47899     47901     47902     47903     47902     47904     47905     47906
     47905     47907     47908     47909     47908     47910     47911     47912
     47911     47913     47914     47915     47914     47916     47917     47918
     47917     47919     47920     47921     47920     47922     47923     47924
     47923     47925     47926     47927     47926     47928     47929     47930
     47929     47931     47932     47933     47932     47934     47935     47936
     47935     47937     47938     47939     47938     47940     47941     47942
     47941     47943     47944     47945     47944     47946     47947     47948
     47947     47949     47950     47951     47950     47952     47953     47954
     47953     47955     47956     47957     47956     47958     47959     47960
     47959     47961     47962     47963     47962     47964     47965     47966
     47965     47967     47968     47969     47968     47970     47971     47972
     47971     47973     47974     47975     47974     47976     47977     47978
     47977     47979     47980     47981     47980     47982     47983     47984
     47983     47985     47986     47987     47986     47988     47989     47990
     47989     47991     47992     47993     47992     47994     47995     47996
     47995     47997     47998     47999     47998     48000     48001     48002
     48001     48003     48004     48005     48004     48006     48007     48008
     48007     48009     48010     48011     48010     48012     48013     48014
     48013     48015     48016     48017     48016     48018     48019     48020
     48019     48021     48022     48023     48022     48024     48025     48026
     48025     48027     48028     48029     48028     48030     48031     48032
     48031     48033     48034     48035     48034     48036     48037     48038
     48037     48039     48040     48041     48040     48042     48043     48044
     48043     48045     48046     48047     48046     48048     48049     48050
     48049     48051     48052     48053     48052     48054     48055     48056
     48055     48057     48058     48059     48058     48060     48061     48062
     48061     48063     48064     48065     48064     48066     48067     48068
     48067     48069     48070     48071     48070     48072     48073     48074
     48073     48075     48076     48077     48076     48078     48079     48080
     48079     48081     48082     48083     48082     48084     48085     48086
     48085     48087     48088     48089     48088     48090     48091     48092
     48091     48093     48094     48095     48094     48096     48097     48098
     48097     48099     48100     48101     48100     48102     48103     48104
     48103     48105     48106     48107     48106     48108     48109     48110
     48109     48111     48112     48113     48112     48114     48115     48116
     48115     48117     48118     48119     48118     48120     48121     48122
     48121     48123     48124     48125     48124     48126     48127     48128
     48127     48129     48130     48131     48130     48132     48133     48134
     48133     48135     48136     48137     48136     48138     48139     48140
     48139     48141     48142     48143     48142     48144     48145     48146
     48145     48147     48148     48149     48148     48150     48151     48152
     48151     48153     48154     48155     48154     48156     48157     48158
     48157     48159     48160     48161     48160     48162     48163     48164
     48163     48165     48166     48167     48166     48168     48169     48170
     48169     48171     48172     48173     48172     48174     48175     48176
     48175     48177     48178     48179     48178     48180     48181     48182
     48181     48183     48184     48185     48184     48186     48187     48188
     48187     48189     48190     48191     48190     48192     48193     48194
     48193     48195     48196     48197     48196     48198     48199     48200
     48199     48201     48202     48203     48202     48204     48205     48206
     48205     48207     48208     48209     48208     48210     48211     48212
     48211     48213     48214     48215     48214     48216     48217     48218
     48217     48219     48220     48221     48220     48222     48223     48224
     48223     48225     48226     48227     48226     48228     48229     48230
     48229     48231     48232     48233     48232     48234     48235     48236
     48235     48237     48238     48239     48238     48240     48241     48242
     48241     48243     48244     48245     48244     48246     48247     48248
     48247     48249     48250     48251     48250     48252     48253     48254
     48253     48255     48256     48257     48256     48258     48259     48260
     48259     48261     48262     48263     48262     48264     48265     48266
     48265     48267     48268     48269     48268     48270     48271     48272
     48271     48273     48274     48275     48274     48276     48277     48278
     48277     48279     48280     48281     48280     48282     48283     48284
     48283     48285     48286     48287     48286     48288     48289     48290
     48289     48291     48292     48293     48292     48294     48295     48296
     48295     48297     48298     48299     48298     48300     48301     48302
     48301     48303     48304     48305     48304     48306     48307     48308
     48307     48309     48310     48311     48310     48312     48313     48314
     48313     48315     48316     48317     48316     48318     48319     48320
     48319     48321     48322     48323     48322     48324     48325     48326
     48325     48327     48328     48329     48328     48330     48331     48332
     48331     48333     48334     48335     48334     48336     48337     48338
     48337     48339     48340     48341     48340     48342     48343     48344
     48343     48345     48346     48347     48346     48348     48349     48350
     48349     48351     48352     48353     48352     48354     48355     48356
     48355     48357     48358     48359     48358     48360     48361     48362
     48361     48363     48364     48365     48364     48366     48367     48368
     48367     48369     48370     48371     48370     48372     48373     48374
     48373     48375     48376     48377     48376     48378     48379     48380
     48379     48381     48382     48383     48382     48384     48385     48386
     48385     48387     48388     48389     48388     48390     48391     48392
     48391     48393     48394     48395     48394     48396     48397     48398
     48397     48399     48400     48401     48400     48402     48403     48404
     48403     48405     48406     48407     48406     48408     48409     48410
     48409     48411     48412     48413     48412     48414     48415     48416
     48415     48417     48418     48419     48418     48420     48421     48422
     48421     48423     48424     48425     48424     48426     48427     48428
     48427     48429     48430     48431     48430     48432     48433     48434
     48433     48435     48436     48437     48436     48438     48439     48440
     48439     48441     48442     48443     48442     48444     48445     48446
     48445     48447     48448     48449     48448     48450     48451     48452
     48451     48453     48454     48455     48454     48456     48457     48458
     48457     48459     48460     48461     48460     48462     48463     48464
     48463     48465     48466     48467     48466     48468     48469     48470
     48469     48471     48472     48473     48472     48474     48475     48476
     48475     48477     48478     48479     48478     48480     48481     48482
     48481     48483     48484     48485     48484     48486     48487     48488
     48487     48489     48490     48491     48490     48492     48493     48494
     48493     48495     48496     48497     48496     48498     48499     48500
     48499     48501     48502     48503     48502     48504     48505     48506
     48505     48507     48508     48509     48508     48510     48511     48512
     48511     48513     48514     48515     48514     48516     48517     48518
     48517     48519     48520     48521     48520     48522     48523     48524
     48523     48525     48526     48527     48526     48528     48529     48530
     48529     48531     48532     48533     48532     48534     48535     48536
     48535     48537     48538     48539     48538     48540     48541     48542
     48541     48543     48544     48545     48544     48546     48547     48548
     48547     48549     48550     48551     48550     48552     48553     48554
     48553     48555     48556     48557     48556     48558     48559     48560
     48559     48561     48562     48563     48562     48564     48565     48566
     48565     48567     48568     48569     48568     48570     48571     48572
     48571     48573     48574     48575     48574     48576     48577     48578
     48577     48579     48580     48581     48580     48582     48583     48584
     48583     48585     48586     48587     48586     48588     48589     48590
     48589     48591     48592     48593     48592     48594     48595     48596
     48595     48597     48598     48599     48598     48600     48601     48602
     48601     48603     48604     48605     48604     48606     48607     48608
     48607     48609     48610     48611     48610     48612     48613     48614
     48613     48615     48616     48617     48616     48618     48619     48620
     48619     48621     48622     48623     48622     48624     48625     48626
     48625     48627     48628     48629     48628     48630     48631     48632
     48631     48633     48634     48635     48634     48636     48637     48638
     48637     48639     48640     48641     48640     48642     48643     48644
     48643     48645     48646     48647     48646     48648     48649     48650
     48649     48651     48652     48653     48652     48654     48655     48656
     48655     48657     48658     48659     48658     48660     48661     48662
     48661     48663     48664     48665     48664     48666     48667     48668
     48667     48669     48670     48671     48670     48672     48673     48674
     48673     48675     48676     48677     48676     48678     48679     48680
     48679     48681     48682     48683     48682     48684     48685     48686
     48685     48687     48688     48689     48688     48690     48691     48692
     48691     48693     48694     48695     48694     48696     48697     48698
     48697     48699     48700     48701     48700     48702     48703     48704
     48703     48705     48706     48707     48706     48708     48709     48710
     48709     48711     48712     48713     48712     48714     48715     48716
     48715     48717     48718     48719     48718     48720     48721     48722
     48721     48723     48724     48725     48724     48726     48727     48728
     48727     48729     48730     48731     48730     48732     48733     48734
     48733     48735     48736     48737     48736     48738     48739     48740
     48739     48741     48742     48743     48742     48744     48745     48746
     48745     48747     48748     48749     48748     48750     48751     48752
     48751     48753     48754     48755     48754     48756     48757     48758
     48757     48759     48760     48761     48760     48762     48763     48764
     48763     48765     48766     48767     48766     48768     48769     48770
     48769     48771     48772     48773     48772     48774     48775     48776
     48775     48777     48778     48779     48778     48780     48781     48782
     48781     48783     48784     48785     48784     48786     48787     48788
     48787     48789     48790     48791     48790     48792     48793     48794
     48793     48795     48796     48797     48796     48798     48799     48800
     48799     48801     48802     48803     48802     48804     48805     48806
     48805     48807     48808     48809     48808     48810     48811     48812
     48811     48813     48814     48815     48814     48816     48817     48818
     48817     48819     48820     48821     48820     48822     48823     48824
     48823     48825     48826     48827     48826     48828     48829     48830
     48829     48831     48832     48833     48832     48834     48835     48836
     48835     48837     48838     48839     48838     48840     48841     48842
     48841     48843     48844     48845     48844     48846     48847     48848
     48847     48849     48850     48851     48850     48852     48853     48854
     48853     48855     48856     48857     48856     48858     48859     48860
     48859     48861     48862     48863     48862     48864     48865     48866
     48865     48867     48868     48869     48868     48870     48871     48872
     48871     48873     48874     48875     48874     48876     48877     48878
     48877     48879     48880     48881     48880     48882     48883     48884
     48883     48885     48886     48887     48886     48888     48889     48890
     48889     48891     48892     48893     48892     48894     48895     48896
     48895     48897     48898     48899     48898     48900     48901     48902
     48901     48903     48904     48905     48904     48906     48907     48908
     48907     48909     48910     48911     48910     48912     48913     48914
     48913     48915     48916     48917     48916     48918     48919     48920
     48919     48921     48922     48923     48922     48924     48925     48926
     48925     48927     48928     48929     48928     48930     48931     48932
     48931     48933     48934     48935     48934     48936     48937     48938
     48937     48939     48940     48941     48940     48942     48943     48944
     48943     48945     48946     48947     48946     48948     48949     48950
     48949     48951     48952     48953     48952     48954     48955     48956
     48955     48957     48958     48959     48958     48960     48961     48962
     48961     48963     48964     48965     48964     48966     48967     48968
     48967     48969     48970     48971     48970     48972     48973     48974
     48973     48975     48976     48977     48976     48978     48979     48980
     48979     48981     48982     48983     48982     48984     48985     48986
     48985     48987     48988     48989     48988     48990     48991     48992
     48991     48993     48994     48995     48994     48996     48997     48998
     48997     48999     49000     49001     49000     49002     49003     49004
     49003     49005     49006     49007     49006     49008     49009     49010
     49009     49011     49012     49013     49012     49014     49015     49016
     49015     49017     49018     49019     49018     49020     49021     49022
     49021     49023     49024     49025     49024     49026     49027     49028
     49027     49029     49030     49031     49030     49032     49033     49034
     49033     49035     49036     49037     49036     49038     49039     49040
     49039     49041     49042     49043     49042     49044     49045     49046
     49045     49047     49048     49049     49048     49050     49051     49052
     49051     49053     49054     49055     49054     49056     49057     49058
     49057     49059     49060     49061     49060     49062     49063     49064
     49063     49065     49066     49067     49066     49068     49069     49070
     49069     49071     49072     49073     49072     49074     49075     49076
     49075     49077     49078     49079     49078     49080     49081     49082
     49081     49083     49084     49085     49084     49086     49087     49088
     49087     49089     49090     49091     49090     49092     49093     49094
     49093     49095     49096     49097     49096     49098     49099     49100
     49099     49101     49102     49103     49102     49104     49105     49106
     49105     49107     49108     49109     49108     49110     49111     49112
     49111     49113     49114     49115     49114     49116     49117     49118
     49117     49119     49120     49121     49120     49122     49123     49124
     49123     49125     49126     49127     49126     49128     49129     49130
     49129     49131     49132     49133     49132     49134     49135     49136
     49135     49137     49138     49139     49138     49140     49141     49142
     49141     49143     49144     49145     49144     49146     49147     49148
     49147     49149     49150     49151     49150     49152     49153     49154
     49153     49155     49156     49157     49156     49158     49159     49160
     49159     49161     49162     49163     49162     49164     49165     49166
     49165     49167     49168     49169     49168     49170     49171     49172
     49171     49173     49174     49175     49174     49176     49177     49178
     49177     49179     49180     49181     49180     49182     49183     49184
     49183     49185     49186     49187     49186     49188     49189     49190
     49189     49191     49192     49193     49192     49194     49195     49196
     49195     49197     49198     49199     49198     49200     49201     49202
     49201     49203     49204     49205     49204     49206     49207     49208
     49207     49209     49210     49211     49210     49212     49213     49214
     49213     49215     49216     49217     49216     49218     49219     49220
     49219     49221     49222     49223     49222     49224     49225     49226
     49225     49227     49228     49229     49228     49230     49231     49232
     49231     49233     49234     49235     49234     49236     49237     49238
     49237     49239     49240     49241     49240     49242     49243     49244
     49243     49245     49246     49247     49246     49248     49249     49250
     49249     49251     49252     49253     49252     49254     49255     49256
     49255     49257     49258     49259     49258     49260     49261     49262
     49261     49263     49264     49265     49264     49266     49267     49268
     49267     49269     49270     49271     49270     49272     49273     49274
     49273     49275     49276     49277     49276     49278     49279     49280
     49279     49281     49282     49283     49282     49284     49285     49286
     49285     49287     49288     49289     49288     49290     49291     49292
     49291     49293     49294     49295     49294     49296     49297     49298
     49297     49299     49300     49301     49300     49302     49303     49304
     49303     49305     49306     49307     49306     49308     49309     49310
     49309     49311     49312     49313     49312     49314     49315     49316
     49315     49317     49318     49319     49318     49320     49321     49322
     49321     49323     49324     49325     49324     49326     49327     49328
     49327     49329     49330     49331     49330     49332     49333     49334
     49333     49335     49336     49337     49336     49338     49339     49340
     49339     49341     49342     49343     49342     49344     49345     49346
     49345     49347     49348     49349     49348     49350     49351     49352
     49351     49353     49354     49355     49354     49356     49357     49358
     49357     49359     49360     49361     49360     49362     49363     49364
     49363     49365     49366     49367     49366     49368     49369     49370
     49369     49371     49372     49373     49372     49374     49375     49376
     49375     49377     49378     49379     49378     49380     49381     49382
     49381     49383     49384     49385     49384     49386     49387     49388
     49387     49389     49390     49391     49390     49392     49393     49394
     49393     49395     49396     49397     49396     49398     49399     49400
     49399     49401     49402     49403     49402     49404     49405     49406
     49405     49407     49408     49409     49408     49410     49411     49412
     49411     49413     49414     49415     49414     49416     49417     49418
     49417     49419     49420     49421     49420     49422     49423     49424
     49423     49425     49426     49427     49426     49428     49429     49430
     49429     49431     49432     49433     49432     49434     49435     49436
     49435     49437     49438     49439     49438     49440     49441     49442
     49441     49443     49444     49445     49444     49446     49447     49448
     49447     49449     49450     49451     49450     49452     49453     49454
     49453     49455     49456     49457     49456     49458     49459     49460
     49459     49461     49462     49463     49462     49464     49465     49466
     49465     49467     49468     49469     49468     49470     49471     49472
     49471     49473     49474     49475     49474     49476     49477     49478
     49477     49479     49480     49481     49480     49482     49483     49484
     49483     49485     49486     49487     49486     49488     49489     49490
     49489     49491     49492     49493     49492     49494     49495     49496
     49495     49497     49498     49499     49498     49500     49501     49502
     49501     49503     49504     49505     49504     49506     49507     49508
     49507     49509     49510     49511     49510     49512     49513     49514
     49513     49515     49516     49517     49516     49518     49519     49520
     49519     49521     49522     49523     49522     49524     49525     49526
     49525     49527     49528     49529     49528     49530     49531     49532
     49531     49533     49534     49535     49534     49536     49537     49538
     49537     49539     49540     49541     49540     49542     49543     49544
     49543     49545     49546     49547     49546     49548     49549     49550
     49549     49551     49552     49553     49552     49554     49555     49556
     49555     49557     49558     49559     49558     49560     49561     49562
     49561     49563     49564     49565     49564     49566     49567     49568
     49567     49569     49570     49571     49570     49572     49573     49574
     49573     49575     49576     49577     49576     49578     49579     49580
     49579     49581     49582     49583     49582     49584     49585     49586
     49585     49587     49588     49589     49588     49590     49591     49592
     49591     49593     49594     49595     49594     49596     49597     49598
     49597     49599     49600     49601     49600     49602     49603     49604
     49603     49605     49606     49607     49606     49608     49609     49610
     49609     49611     49612     49613     49612     49614     49615     49616
     49615     49617     49618     49619     49618     49620     49621     49622
     49621     49623     49624     49625     49624     49626     49627     49628
     49627     49629     49630     49631     49630     49632     49633     49634
     49633     49635     49636     49637     49636     49638     49639     49640
     49639     49641     49642     49643     49642     49644     49645     49646
     49645     49647     49648     49649     49648     49650     49651     49652
     49651     49653     49654     49655     49654     49656     49657     49658
     49657     49659     49660     49661     49660     49662     49663     49664
     49663     49665     49666     49667     49666     49668     49669     49670
     49669     49671     49672     49673     49672     49674     49675     49676
     49675     49677     49678     49679     49678     49680     49681     49682
     49681     49683     49684     49685     49684     49686     49687     49688
     49687     49689     49690     49691     49690     49692     49693     49694
     49693     49695     49696     49697     49696     49698     49699     49700
     49699     49701     49702     49703     49702     49704     49705     49706
     49705     49707     49708     49709     49708     49710     49711     49712
     49711     49713     49714     49715     49714     49716     49717     49718
     49717     49719     49720     49721     49720     49722     49723     49724
     49723     49725     49726     49727     49726     49728     49729     49730
     49729     49731     49732     49733     49732     49734     49735     49736
     49735     49737     49738     49739     49738     49740     49741     49742
     49741     49743     49744     49745     49744     49746     49747     49748
     49747     49749     49750     49751     49750     49752     49753     49754
     49753     49755     49756     49757     49756     49758     49759     49760
     49759     49761     49762     49763     49762     49764     49765     49766
     49765     49767     49768     49769     49768     49770     49771     49772
     49771     49773     49774     49775     49774     49776     49777     49778
     49777     49779     49780     49781     49780     49782     49783     49784
     49783     49785     49786     49787     49786     49788     49789     49790
     49789     49791     49792     49793     49792     49794     49795     49796
     49795     49797     49798     49799     49798     49800     49801     49802
     49801     49803     49804     49805     49804     49806     49807     49808
     49807     49809     49810     49811     49810     49812     49813     49814
     49813     49815     49816     49817     49816     49818     49819     49820
     49819     49821     49822     49823     49822     49824     49825     49826
     49825     49827     49828     49829     49828     49830     49831     49832
     49831     49833     49834     49835     49834     49836     49837     49838
     49837     49839     49840     49841     49840     49842     49843     49844
     49843     49845     49846     49847     49846     49848     49849     49850
     49849     49851     49852     49853     49852     49854     49855     49856
     49855     49857     49858     49859     49858     49860     49861     49862
     49861     49863     49864     49865     49864     49866     49867     49868
     49867     49869     49870     49871     49870     49872     49873     49874
     49873     49875     49876     49877     49876     49878     49879     49880
     49879     49881     49882     49883     49882     49884     49885     49886
     49885     49887     49888     49889     49888     49890     49891     49892
     49891     49893     49894     49895     49894     49896     49897     49898
     49897     49899     49900     49901     49900     49902     49903     49904
     49903     49905     49906     49907     49906     49908     49909     49910
     49909     49911     49912     49913     49912     49914     49915     49916
     49915     49917     49918     49919     49918     49920     49921     49922
     49921     49923     49924     49925     49924     49926     49927     49928
     49927     49929     49930     49931     49930     49932     49933     49934
     49933     49935     49936     49937     49936     49938     49939     49940
     49939     49941     49942     49943     49942     49944     49945     49946
     49945     49947     49948     49949     49948     49950     49951     49952
     49951     49953     49954     49955     49954     49956     49957     49958
     49957     49959     49960     49961     49960     49962     49963     49964
     49963     49965     49966     49967     49966     49968     49969     49970
     49969     49971     49972     49973     49972     49974     49975     49976
     49975     49977     49978     49979     49978     49980     49981     49982
     49981     49983     49984     49985     49984     49986     49987     49988
     49987     49989     49990     49991     49990     49992     49993     49994
     49993     49995     49996     49997     49996     49998     49999     50000
     49999     50001     50002     50003     50002     50004     50005     50006
     50005     50007     50008     50009     50008     50010     50011     50012
     50011     50013     50014     50015     50014     50016     50017     50018
     50017     50019     50020     50021     50020     50022     50023     50024
     50023     50025     50026     50027     50026     50028     50029     50030
     50029     50031     50032     50033     50032     50034     50035     50036
     50035     50037     50038     50039     50038     50040     50041     50042
     50041     50043     50044     50045     50044     50046     50047     50048
     50047     50049     50050     50051     50050     50052     50053     50054
     50053     50055     50056     50057     50056     50058     50059     50060
     50059     50061     50062     50063     50062     50064     50065     50066
     50065     50067     50068     50069     50068     50070     50071     50072
     50071     50073     50074     50075     50074     50076     50077     50078
     50077     50079     50080     50081     50080     50082     50083     50084
     50083     50085     50086     50087     50086     50088     50089     50090
     50089     50091     50092     50093     50092     50094     50095     50096
     50095     50097     50098     50099     50098     50100     50101     50102
     50101     50103     50104     50105     50104     50106     50107     50108
     50107     50109     50110     50111     50110     50112     50113     50114
     50113     50115     50116     50117     50116     50118     50119     50120
     50119     50121     50122     50123     50122     50124     50125     50126
     50125     50127     50128     50129     50128     50130     50131     50132
     50131     50133     50134     50135     50134     50136     50137     50138
     50137     50139     50140     50141     50140     50142     50143     50144
     50143     50145     50146     50147     50146     50148     50149     50150
     50149     50151     50152     50153     50152     50154     50155     50156
     50155     50157     50158     50159     50158     50160     50161     50162
     50161     50163     50164     50165     50164     50166     50167     50168
     50167     50169     50170     50171     50170     50172     50173     50174
     50173     50175     50176     50177     50176     50178     50179     50180
     50179     50181     50182     50183     50182     50184     50185     50186
     50185     50187     50188     50189     50188     50190     50191     50192
     50191     50193     50194     50195     50194     50196     50197     50198
     50197     50199     50200     50201     50200     50202     50203     50204
     50203     50205     50206     50207     50206     50208     50209     50210
     50209     50211     50212     50213     50212     50214     50215     50216
     50215     50217     50218     50219     50218     50220     50221     50222
     50221     50223     50224     50225     50224     50226     50227     50228
     50227     50229     50230     50231     50230     50232     50233     50234
     50233     50235     50236     50237     50236     50238     50239     50240
     50239     50241     50242     50243     50242     50244     50245     50246
     50245     50247     50248     50249     50248     50250     50251     50252
     50251     50253     50254     50255     50254     50256     50257     50258
     50257     50259     50260     50261     50260     50262     50263     50264
     50263     50265     50266     50267     50266     50268     50269     50270
     50269     50271     50272     50273     50272     50274     50275     50276
     50275     50277     50278     50279     50278     50280     50281     50282
     50281     50283     50284     50285     50284     50286     50287     50288
     50287     50289     50290     50291     50290     50292     50293     50294
     50293     50295     50296     50297     50296     50298     50299     50300
     50299     50301     50302     50303     50302     50304     50305     50306
     50305     50307     50308     50309     50308     50310     50311     50312
     50311     50313     50314     50315     50314     50316     50317     50318
     50317     50319     50320     50321     50320     50322     50323     50324
     50323     50325     50326     50327     50326     50328     50329     50330
     50329     50331     50332     50333     50332     50334     50335     50336
     50335     50337     50338     50339     50338     50340     50341     50342
     50341     50343     50344     50345     50344     50346     50347     50348
     50347     50349     50350     50351     50350     50352     50353     50354
     50353     50355     50356     50357     50356     50358     50359     50360
     50359     50361     50362     50363     50362     50364     50365     50366
     50365     50367     50368     50369     50368     50370     50371     50372
     50371     50373     50374     50375     50374     50376     50377     50378
     50377     50379     50380     50381     50380     50382     50383     50384
     50383     50385     50386     50387     50386     50388     50389     50390
     50389     50391     50392     50393     50392     50394     50395     50396
     50395     50397     50398     50399     50398     50400     50401     50402
     50401     50403     50404     50405     50404     50406     50407     50408
     50407     50409     50410     50411     50410     50412     50413     50414
     50413     50415     50416     50417     50416     50418     50419     50420
     50419     50421     50422     50423     50422     50424     50425     50426
     50425     50427     50428     50429     50428     50430     50431     50432
     50431     50433     50434     50435     50434     50436     50437     50438
     50437     50439     50440     50441     50440     50442     50443     50444
     50443     50445     50446     50447     50446     50448     50449     50450
     50449     50451     50452     50453     50452     50454     50455     50456
     50455     50457     50458     50459     50458     50460     50461     50462
     50461     50463     50464     50465     50464     50466     50467     50468
     50467     50469     50470     50471     50470     50472     50473     50474
     50473     50475     50476     50477     50476     50478     50479     50480
     50479     50481     50482     50483     50482     50484     50485     50486
     50485     50487     50488     50489     50488     50490     50491     50492
     50491     50493     50494     50495     50494     50496     50497     50498
     50497     50499     50500     50501     50500     50502     50503     50504
     50503     50505     50506     50507     50506     50508     50509     50510
     50509     50511     50512     50513     50512     50514     50515     50516
     50515     50517     50518     50519     50518     50520     50521     50522
     50521     50523     50524     50525     50524     50526     50527     50528
     50527     50529     50530     50531     50530     50532     50533     50534
     50533     50535     50536     50537     50536     50538     50539     50540
     50539     50541     50542     50543     50542     50544     50545     50546
     50545     50547     50548     50549     50548     50550     50551     50552
     50551     50553     50554     50555     50554     50556     50557     50558
     50557     50559     50560     50561     50560     50562     50563     50564
     50563     50565     50566     50567     50566     50568     50569     50570
     50569     50571     50572     50573     50572     50574     50575     50576
     50575     50577     50578     50579     50578     50580     50581     50582
     50581     50583     50584     50585     50584     50586     50587     50588
     50587     50589     50590     50591     50590     50592     50593     50594
     50593     50595     50596     50597     50596     50598     50599     50600
     50599     50601     50602     50603     50602     50604     50605     50606
     50605     50607     50608     50609     50608     50610     50611     50612
     50611     50613     50614     50615     50614     50616     50617     50618
     50617     50619     50620     50621     50620     50622     50623     50624
     50623     50625     50626     50627     50626     50628     50629     50630
     50629     50631     50632     50633     50632     50634     50635     50636
     50635     50637     50638     50639     50638     50640     50641     50642
     50641     50643     50644     50645     50644     50646     50647     50648
     50647     50649     50650     50651     50650     50652     50653     50654
     50653     50655     50656     50657     50656     50658     50659     50660
     50659     50661     50662     50663     50662     50664     50665     50666
     50665     50667     50668     50669     50668     50670     50671     50672
     50671     50673     50674     50675     50674     50676     50677     50678
     50677     50679     50680     50681     50680     50682     50683     50684
     50683     50685     50686     50687     50686     50688     50689     50690
     50689     50691     50692     50693     50692     50694     50695     50696
     50695     50697     50698     50699     50698     50700     50701     50702
     50701     50703     50704     50705     50704     50706     50707     50708
     50707     50709     50710     50711     50710     50712     50713     50714
     50713     50715     50716     50717     50716     50718     50719     50720
     50719     50721     50722     50723     50722     50724     50725     50726
     50725     50727     50728     50729     50728     50730     50731     50732
     50731     50733     50734     50735     50734     50736     50737     50738
     50737     50739     50740     50741     50740     50742     50743     50744
     50743     50745     50746     50747     50746     50748     50749     50750
     50749     50751     50752     50753     50752     50754     50755     50756
     50755     50757     50758     50759     50758     50760     50761     50762
     50761     50763     50764     50765     50764     50766     50767     50768
     50767     50769     50770     50771     50770     50772     50773     50774
     50773     50775     50776     50777     50776     50778     50779     50780
     50779     50781     50782     50783     50782     50784     50785     50786
     50785     50787     50788     50789     50788     50790     50791     50792
     50791     50793     50794     50795     50794     50796     50797     50798
     50797     50799     50800     50801     50800     50802     50803     50804
     50803     50805     50806     50807     50806     50808     50809     50810
     50809     50811     50812     50813     50812     50814     50815     50816
     50815     50817     50818     50819     50818     50820     50821     50822
     50821     50823     50824     50825     50824     50826     50827     50828
     50827     50829     50830     50831     50830     50832     50833     50834
     50833     50835     50836     50837     50836     50838     50839     50840
     50839     50841     50842     50843     50842     50844     50845     50846
     50845     50847     50848     50849     50848     50850     50851     50852
     50851     50853     50854     50855     50854     50856     50857     50858
     50857     50859     50860     50861     50860     50862     50863     50864
     50863     50865     50866     50867     50866     50868     50869     50870
     50869     50871     50872     50873     50872     50874     50875     50876
     50875     50877     50878     50879     50878     50880     50881     50882
     50881     50883     50884     50885     50884     50886     50887     50888
     50887     50889     50890     50891     50890     50892     50893     50894
     50893     50895     50896     50897     50896     50898     50899     50900
     50899     50901     50902     50903     50902     50904     50905     50906
     50905     50907     50908     50909     50908     50910     50911     50912
     50911     50913     50914     50915     50914     50916     50917     50918
     50917     50919     50920     50921     50920     50922     50923     50924
     50923     50925     50926     50927     50926     50928     50929     50930
     50929     50931     50932     50933     50932     50934     50935     50936
     50935     50937     50938     50939     50938     50940     50941     50942
     50941     50943     50944     50945     50944     50946     50947     50948
     50947     50949     50950     50951     50950     50952     50953     50954
     50953     50955     50956     50957     50956     50958     50959     50960
     50959     50961     50962     50963     50962     50964     50965     50966
     50965     50967     50968     50969     50968     50970     50971     50972
     50971     50973     50974     50975     50974     50976     50977     50978
     50977     50979     50980     50981     50980     50982     50983     50984
     50983     50985     50986     50987     50986     50988     50989     50990
     50989     50991     50992     50993     50992     50994     50995     50996
     50995     50997     50998     50999     50998     51000     51001     51002
     51001     51003     51004     51005     51004     51006     51007     51008
     51007     51009     51010     51011     51010     51012     51013     51014
     51013     51015     51016     51017     51016     51018     51019     51020
     51019     51021     51022     51023     51022     51024     51025     51026
     51025     51027     51028     51029     51028     51030     51031     51032
     51031     51033     51034     51035     51034     51036     51037     51038
     51037     51039     51040     51041     51040     51042     51043     51044
     51043     51045     51046     51047     51046     51048     51049     51050
     51049     51051     51052     51053     51052     51054     51055     51056
     51055     51057     51058     51059     51058     51060     51061     51062
     51061     51063     51064     51065     51064     51066     51067     51068
     51067     51069     51070     51071     51070     51072     51073     51074
     51073     51075     51076     51077     51076     51078     51079     51080
     51079     51081     51082     51083     51082     51084     51085     51086
     51085     51087     51088     51089     51088     51090     51091     51092
     51091     51093     51094     51095     51094     51096     51097     51098
     51097     51099     51100     51101     51100     51102     51103     51104
     51103     51105     51106     51107     51106     51108     51109     51110
     51109     51111     51112     51113     51112     51114     51115     51116
     51115     51117     51118     51119     51118     51120     51121     51122
     51121     51123     51124     51125     51124     51126     51127     51128
     51127     51129     51130     51131     51130     51132     51133     51134
     51133     51135     51136     51137     51136     51138     51139     51140
     51139     51141     51142     51143     51142     51144     51145     51146
     51145     51147     51148     51149     51148     51150     51151     51152
     51151     51153     51154     51155     51154     51156     51157     51158
     51157     51159     51160     51161     51160     51162     51163     51164
     51163     51165     51166     51167     51166     51168     51169     51170
     51169     51171     51172     51173     51172     51174     51175     51176
     51175     51177     51178     51179     51178     51180     51181     51182
     51181     51183     51184     51185     51184     51186     51187     51188
     51187     51189     51190     51191     51190     51192     51193     51194
     51193     51195     51196     51197     51196     51198     51199     51200
     51199     51201     51202     51203     51202     51204     51205     51206
     51205     51207     51208     51209     51208     51210     51211     51212
     51211     51213     51214     51215     51214     51216     51217     51218
     51217     51219     51220     51221     51220     51222     51223     51224
     51223     51225     51226     51227     51226     51228     51229     51230
     51229     51231     51232     51233     51232     51234     51235     51236
     51235     51237     51238     51239     51238     51240     51241     51242
     51241     51243     51244     51245     51244     51246     51247     51248
     51247     51249     51250     51251     51250     51252     51253     51254
     51253     51255     51256     51257     51256     51258     51259     51260
     51259     51261     51262     51263     51262     51264     51265     51266
     51265     51267     51268     51269     51268     51270     51271     51272
     51271     51273     51274     51275     51274     51276     51277     51278
     51277     51279     51280     51281     51280     51282     51283     51284
     51283     51285     51286     51287     51286     51288     51289     51290
     51289     51291     51292     51293     51292     51294     51295     51296
     51295     51297     51298     51299     51298     51300     51301     51302
     51301     51303     51304     51305     51304     51306     51307     51308
     51307     51309     51310     51311     51310     51312     51313     51314
     51313     51315     51316     51317     51316     51318     51319     51320
     51319     51321     51322     51323     51322     51324     51325     51326
     51325     51327     51328     51329     51328     51330     51331     51332
     51331     51333     51334     51335     51334     51336     51337     51338
     51337     51339     51340     51341     51340     51342     51343     51344
     51343     51345     51346     51347     51346     51348     51349     51350
     51349     51351     51352     51353     51352     51354     51355     51356
     51355     51357     51358     51359     51358     51360     51361     51362
     51361     51363     51364     51365     51364     51366     51367     51368
     51367     51369     51370     51371     51370     51372     51373     51374
     51373     51375     51376     51377     51376     51378     51379     51380
     51379     51381     51382     51383     51382     51384     51385     51386
     51385     51387     51388     51389     51388     51390     51391     51392
     51391     51393     51394     51395     51394     51396     51397     51398
     51397     51399     51400     51401     51400     51402     51403     51404
     51403     51405     51406     51407     51406     51408     51409     51410
     51409     51411     51412     51413     51412     51414     51415     51416
     51415     51417     51418     51419     51418     51420     51421     51422
     51421     51423     51424     51425     51424     51426     51427     51428
     51427     51429     51430     51431     51430     51432     51433     51434
     51433     51435     51436     51437     51436     51438     51439     51440
     51439     51441     51442     51443     51442     51444     51445     51446
     51445     51447     51448     51449     51448     51450     51451     51452
     51451     51453     51454     51455     51454     51456     51457     51458
     51457     51459     51460     51461     51460     51462     51463     51464
     51463     51465     51466     51467     51466     51468     51469     51470
     51469     51471     51472     51473     51472     51474     51475     51476
     51475     51477     51478     51479     51478     51480     51481     51482
     51481     51483     51484     51485     51484     51486     51487     51488
     51487     51489     51490     51491     51490     51492     51493     51494
     51493     51495     51496     51497     51496     51498     51499     51500
     51499     51501     51502     51503     51502     51504     51505     51506
     51505     51507     51508     51509     51508     51510     51511     51512
     51511     51513     51514     51515     51514     51516     51517     51518
     51517     51519     51520     51521     51520     51522     51523     51524
     51523     51525     51526     51527     51526     51528     51529     51530
     51529     51531     51532     51533     51532     51534     51535     51536
     51535     51537     51538     51539     51538     51540     51541     51542
     51541     51543     51544     51545     51544     51546     51547     51548
     51547     51549     51550     51551     51550     51552     51553     51554
     51553     51555     51556     51557     51556     51558     51559     51560
     51559     51561     51562     51563     51562     51564     51565     51566
     51565     51567     51568     51569     51568     51570     51571     51572
     51571     51573     51574     51575     51574     51576     51577     51578
     51577     51579     51580     51581     51580     51582     51583     51584
     51583     51585     51586     51587     51586     51588     51589     51590
     51589     51591     51592     51593     51592     51594     51595     51596
     51595     51597     51598     51599     51598     51600     51601     51602
     51601     51603     51604     51605     51604     51606     51607     51608
     51607     51609     51610     51611     51610     51612     51613     51614
     51613     51615     51616     51617     51616     51618     51619     51620
     51619     51621     51622     51623     51622     51624     51625     51626
     51625     51627     51628     51629     51628     51630     51631     51632
     51631     51633     51634     51635     51634     51636     51637     51638
     51637     51639     51640     51641     51640     51642     51643     51644
     51643     51645     51646     51647     51646     51648     51649     51650
     51649     51651     51652     51653     51652     51654     51655     51656
     51655     51657     51658     51659     51658     51660     51661     51662
     51661     51663     51664     51665     51664     51666     51667     51668
     51667     51669     51670     51671     51670     51672     51673     51674
     51673     51675     51676     51677     51676     51678     51679     51680
     51679     51681     51682     51683     51682     51684     51685     51686
     51685     51687     51688     51689     51688     51690     51691     51692
     51691     51693     51694     51695     51694     51696     51697     51698
     51697     51699     51700     51701     51700     51702     51703     51704
     51703     51705     51706     51707     51706     51708     51709     51710
     51709     51711     51712     51713     51712     51714     51715     51716
     51715     51717     51718     51719     51718     51720     51721     51722
     51721     51723     51724     51725     51724     51726     51727     51728
     51727     51729     51730     51731     51730     51732     51733     51734
     51733     51735     51736     51737     51736     51738     51739     51740
     51739     51741     51742     51743     51742     51744     51745     51746
     51745     51747     51748     51749     51748     51750     51751     51752
     51751     51753     51754     51755     51754     51756     51757     51758
     51757     51759     51760     51761     51760     51762     51763     51764
     51763     51765     51766     51767     51766     51768     51769     51770
     51769     51771     51772     51773     51772     51774     51775     51776
     51775     51777     51778     51779     51778     51780     51781     51782
     51781     51783     51784     51785     51784     51786     51787     51788
     51787     51789     51790     51791     51790     51792     51793     51794
     51793     51795     51796     51797     51796     51798     51799     51800
     51799     51801     51802     51803     51802     51804     51805     51806
     51805     51807     51808     51809     51808     51810     51811     51812
     51811     51813     51814     51815     51814     51816     51817     51818
     51817     51819     51820     51821     51820     51822     51823     51824
     51823     51825     51826     51827     51826     51828     51829     51830
     51829     51831     51832     51833     51832     51834     51835     51836
     51835     51837     51838     51839     51838     51840     51841     51842
     51841     51843     51844     51845     51844     51846     51847     51848
     51847     51849     51850     51851     51850     51852     51853     51854
     51853     51855     51856     51857     51856     51858     51859     51860
     51859     51861     51862     51863     51862     51864     51865     51866
     51865     51867     51868     51869     51868     51870     51871     51872
     51871     51873     51874     51875     51874     51876     51877     51878
     51877     51879     51880     51881     51880     51882     51883     51884
     51883     51885     51886     51887     51886     51888     51889     51890
     51889     51891     51892     51893     51892     51894     51895     51896
     51895     51897     51898     51899     51898     51900     51901     51902
     51901     51903     51904     51905     51904     51906     51907     51908
     51907     51909     51910     51911     51910     51912     51913     51914
     51913     51915     51916     51917     51916     51918     51919     51920
     51919     51921     51922     51923     51922     51924     51925     51926
     51925     51927     51928     51929     51928     51930     51931     51932
     51931     51933     51934     51935     51934     51936     51937     51938
     51937     51939     51940     51941     51940     51942     51943     51944
     51943     51945     51946     51947     51946     51948     51949     51950
     51949     51951     51952     51953     51952     51954     51955     51956
     51955     51957     51958     51959     51958     51960     51961     51962
     51961     51963     51964     51965     51964     51966     51967     51968
     51967     51969     51970     51971     51970     51972     51973     51974
     51973     51975     51976     51977     51976     51978     51979     51980
     51979     51981     51982     51983     51982     51984     51985     51986
     51985     51987     51988     51989     51988     51990     51991     51992
     51991     51993     51994     51995     51994     51996     51997     51998
     51997     51999     52000     52001     52000     52002     52003     52004
     52003     52005     52006     52007     52006     52008     52009     52010
     52009     52011     52012     52013     52012     52014     52015     52016
     52015     52017     52018     52019     52018     52020     52021     52022
     52021     52023     52024     52025     52024     52026     52027     52028
     52027     52029     52030     52031     52030     52032     52033     52034
     52033     52035     52036     52037     52036     52038     52039     52040
     52039     52041     52042     52043     52042     52044     52045     52046
     52045     52047     52048     52049     52048     52050     52051     52052
     52051     52053     52054     52055     52054     52056     52057     52058
     52057     52059     52060     52061     52060     52062     52063     52064
     52063     52065     52066     52067     52066     52068     52069     52070
     52069     52071     52072     52073     52072     52074     52075     52076
     52075     52077     52078     52079     52078     52080     52081     52082
     52081     52083     52084     52085     52084     52086     52087     52088
     52087     52089     52090     52091     52090     52092     52093     52094
     52093     52095     52096     52097     52096     52098     52099     52100
     52099     52101     52102     52103     52102     52104     52105     52106
     52105     52107     52108     52109     52108     52110     52111     52112
     52111     52113     52114     52115     52114     52116     52117     52118
     52117     52119     52120     52121     52120     52122     52123     52124
     52123     52125     52126     52127     52126     52128     52129     52130
     52129     52131     52132     52133     52132     52134     52135     52136
     52135     52137     52138     52139     52138     52140     52141     52142
     52141     52143     52144     52145     52144     52146     52147     52148
     52147     52149     52150     52151     52150     52152     52153     52154
     52153     52155     52156     52157     52156     52158     52159     52160
     52159     52161     52162     52163     52162     52164     52165     52166
     52165     52167     52168     52169     52168     52170     52171     52172
     52171     52173     52174     52175     52174     52176     52177     52178
     52177     52179     52180     52181     52180     52182     52183     52184
     52183     52185     52186     52187     52186     52188     52189     52190
     52189     52191     52192     52193     52192     52194     52195     52196
     52195     52197     52198     52199     52198     52200     52201     52202
     52201     52203     52204     52205     52204     52206     52207     52208
     52207     52209     52210     52211     52210     52212     52213     52214
     52213     52215     52216     52217     52216     52218     52219     52220
     52219     52221     52222     52223     52222     52224     52225     52226
     52225     52227     52228     52229     52228     52230     52231     52232
     52231     52233     52234     52235     52234     52236     52237     52238
     52237     52239     52240     52241     52240     52242     52243     52244
     52243     52245     52246     52247     52246     52248     52249     52250
     52249     52251     52252     52253     52252     52254     52255     52256
     52255     52257     52258     52259     52258     52260     52261     52262
     52261     52263     52264     52265     52264     52266     52267     52268
     52267     52269     52270     52271     52270     52272     52273     52274
     52273     52275     52276     52277     52276     52278     52279     52280
     52279     52281     52282     52283     52282     52284     52285     52286
     52285     52287     52288     52289     52288     52290     52291     52292
     52291     52293     52294     52295     52294     52296     52297     52298
     52297     52299     52300     52301     52300     52302     52303     52304
     52303     52305     52306     52307     52306     52308     52309     52310
     52309     52311     52312     52313     52312     52314     52315     52316
     52315     52317     52318     52319     52318     52320     52321     52322
     52321     52323     52324     52325     52324     52326     52327     52328
     52327     52329     52330     52331     52330     52332     52333     52334
     52333     52335     52336     52337     52336     52338     52339     52340
     52339     52341     52342     52343     52342     52344     52345     52346
     52345     52347     52348     52349     52348     52350     52351     52352
     52351     52353     52354     52355     52354     52356     52357     52358
     52357     52359     52360     52361     52360     52362     52363     52364
     52363     52365     52366     52367     52366     52368     52369     52370
     52369     52371     52372     52373     52372     52374     52375     52376
     52375     52377     52378     52379     52378     52380     52381     52382
     52381     52383     52384     52385     52384     52386     52387     52388
     52387     52389     52390     52391     52390     52392     52393     52394
     52393     52395     52396     52397     52396     52398     52399     52400
     52399     52401     52402     52403     52402     52404     52405     52406
     52405     52407     52408     52409     52408     52410     52411     52412
     52411     52413     52414     52415     52414     52416     52417     52418
     52417     52419     52420     52421     52420     52422     52423     52424
     52423     52425     52426     52427     52426     52428     52429     52430
     52429     52431     52432     52433     52432     52434     52435     52436
     52435     52437     52438     52439     52438     52440     52441     52442
     52441     52443     52444     52445     52444     52446     52447     52448
     52447     52449     52450     52451     52450     52452     52453     52454
     52453     52455     52456     52457     52456     52458     52459     52460
     52459     52461     52462     52463     52462     52464     52465     52466
     52465     52467     52468     52469     52468     52470     52471     52472
     52471     52473     52474     52475     52474     52476     52477     52478
     52477     52479     52480     52481     52480     52482     52483     52484
     52483     52485     52486     52487     52486     52488     52489     52490
     52489     52491     52492     52493     52492     52494     52495     52496
     52495     52497     52498     52499     52498     52500     52501     52502
     52501     52503     52504     52505     52504     52506     52507     52508
     52507     52509     52510     52511     52510     52512     52513     52514
     52513     52515     52516     52517     52516     52518     52519     52520
     52519     52521     52522     52523     52522     52524     52525     52526
     52525     52527     52528     52529     52528     52530     52531     52532
     52531     52533     52534     52535     52534     52536     52537     52538
     52537     52539     52540     52541     52540     52542     52543     52544
     52543     52545     52546     52547     52546     52548     52549     52550
     52549     52551     52552     52553     52552     52554     52555     52556
     52555     52557     52558     52559     52558     52560     52561     52562
     52561     52563     52564     52565     52564     52566     52567     52568
     52567     52569     52570     52571     52570     52572     52573     52574
     52573     52575     52576     52577     52576     52578     52579     52580
     52579     52581     52582     52583     52582     52584     52585     52586
     52585     52587     52588     52589     52588     52590     52591     52592
     52591     52593     52594     52595     52594     52596     52597     52598
     52597     52599     52600     52601     52600     52602     52603     52604
     52603     52605     52606     52607     52606     52608     52609     52610
     52609     52611     52612     52613     52612     52614     52615     52616
     52615     52617     52618     52619     52618     52620     52621     52622
     52621     52623     52624     52625     52624     52626     52627     52628
     52627     52629     52630     52631     52630     52632     52633     52634
     52633     52635     52636     52637     52636     52638     52639     52640
     52639     52641     52642     52643     52642     52644     52645     52646
     52645     52647     52648     52649     52648     52650     52651     52652
     52651     52653     52654     52655     52654     52656     52657     52658
     52657     52659     52660     52661     52660     52662     52663     52664
     52663     52665     52666     52667     52666     52668     52669     52670
     52669     52671     52672     52673     52672     52674     52675     52676
     52675     52677     52678     52679     52678     52680     52681     52682
     52681     52683     52684     52685     52684     52686     52687     52688
     52687     52689     52690     52691     52690     52692     52693     52694
     52693     52695     52696     52697     52696     52698     52699     52700
     52699     52701     52702     52703     52702     52704     52705     52706
     52705     52707     52708     52709     52708     52710     52711     52712
     52711     52713     52714     52715     52714     52716     52717     52718
     52717     52719     52720     52721     52720     52722     52723     52724
     52723     52725     52726     52727     52726     52728     52729     52730
     52729     52731     52732     52733     52732     52734     52735     52736
     52735     52737     52738     52739     52738     52740     52741     52742
     52741     52743     52744     52745     52744     52746     52747     52748
     52747     52749     52750     52751     52750     52752     52753     52754
     52753     52755     52756     52757     52756     52758     52759     52760
     52759     52761     52762     52763     52762     52764     52765     52766
     52765     52767     52768     52769     52768     52770     52771     52772
     52771     52773     52774     52775     52774     52776     52777     52778
     52777     52779     52780     52781     52780     52782     52783     52784
     52783     52785     52786     52787     52786     52788     52789     52790
     52789     52791     52792     52793     52792     52794     52795     52796
     52795     52797     52798     52799     52798     52800     52801     52802
     52801     52803     52804     52805     52804     52806     52807     52808
     52807     52809     52810     52811     52810     52812     52813     52814
     52813     52815     52816     52817     52816     52818     52819     52820
     52819     52821     52822     52823     52822     52824     52825     52826
     52825     52827     52828     52829     52828     52830     52831     52832
     52831     52833     52834     52835     52834     52836     52837     52838
     52837     52839     52840     52841     52840     52842     52843     52844
     52843     52845     52846     52847     52846     52848     52849     52850
     52849     52851     52852     52853     52852     52854     52855     52856
     52855     52857     52858     52859     52858     52860     52861     52862
     52861     52863     52864     52865     52864     52866     52867     52868
     52867     52869     52870     52871     52870     52872     52873     52874
     52873     52875     52876     52877     52876     52878     52879     52880
     52879     52881     52882     52883     52882     52884     52885     52886
     52885     52887     52888     52889     52888     52890     52891     52892
     52891     52893     52894     52895     52894     52896     52897     52898
     52897     52899     52900     52901     52900     52902     52903     52904
     52903     52905     52906     52907     52906     52908     52909     52910
     52909     52911     52912     52913     52912     52914     52915     52916
     52915     52917     52918     52919     52918     52920     52921     52922
     52921     52923     52924     52925     52924     52926     52927     52928
     52927     52929     52930     52931     52930     52932     52933     52934
     52933     52935     52936     52937     52936     52938     52939     52940
     52939     52941     52942     52943     52942     52944     52945     52946
     52945     52947     52948     52949     52948     52950     52951     52952
     52951     52953     52954     52955     52954     52956     52957     52958
     52957     52959     52960     52961     52960     52962     52963     52964
     52963     52965     52966     52967     52966     52968     52969     52970
     52969     52971     52972     52973     52972     52974     52975     52976
     52975     52977     52978     52979     52978     52980     52981     52982
     52981     52983     52984     52985     52984     52986     52987     52988
     52987     52989     52990     52991     52990     52992     52993     52994
     52993     52995     52996     52997     52996     52998     52999     53000
     52999     53001     53002     53003     53002     53004     53005     53006
     53005     53007     53008     53009     53008     53010     53011     53012
     53011     53013     53014     53015     53014     53016     53017     53018
     53017     53019     53020     53021     53020     53022     53023     53024
     53023     53025     53026     53027     53026     53028     53029     53030
     53029     53031     53032     53033     53032     53034     53035     53036
     53035     53037     53038     53039     53038     53040     53041     53042
     53041     53043     53044     53045     53044     53046     53047     53048
     53047     53049     53050     53051     53050     53052     53053     53054
     53053     53055     53056     53057     53056     53058     53059     53060
     53059     53061     53062     53063     53062     53064     53065     53066
     53065     53067     53068     53069     53068     53070     53071     53072
     53071     53073     53074     53075     53074     53076     53077     53078
     53077     53079     53080     53081     53080     53082     53083     53084
     53083     53085     53086     53087     53086     53088     53089     53090
     53089     53091     53092     53093     53092     53094     53095     53096
     53095     53097     53098     53099     53098     53100     53101     53102
     53101     53103     53104     53105     53104     53106     53107     53108
     53107     53109     53110     53111     53110     53112     53113     53114
     53113     53115     53116     53117     53116     53118     53119     53120
     53119     53121     53122     53123     53122     53124     53125     53126
     53125     53127     53128     53129     53128     53130     53131     53132
     53131     53133     53134     53135     53134     53136     53137     53138
     53137     53139     53140     53141     53140     53142     53143     53144
     53143     53145     53146     53147     53146     53148     53149     53150
     53149     53151     53152     53153     53152     53154     53155     53156
     53155     53157     53158     53159     53158     53160     53161     53162
     53161     53163     53164     53165     53164     53166     53167     53168
     53167     53169     53170     53171     53170     53172     53173     53174
     53173     53175     53176     53177     53176     53178     53179     53180
     53179     53181     53182     53183     53182     53184     53185     53186
     53185     53187     53188     53189     53188     53190     53191     53192
     53191     53193     53194     53195     53194     53196     53197     53198
     53197     53199     53200     53201     53200     53202     53203     53204
     53203     53205     53206     53207     53206     53208     53209     53210
     53209     53211     53212     53213     53212     53214     53215     53216
     53215     53217     53218     53219     53218     53220     53221     53222
     53221     53223     53224     53225     53224     53226     53227     53228
     53227     53229     53230     53231     53230     53232     53233     53234
     53233     53235     53236     53237     53236     53238     53239     53240
     53239     53241     53242     53243     53242     53244     53245     53246
     53245     53247     53248     53249     53248     53250     53251     53252
     53251     53253     53254     53255     53254     53256     53257     53258
     53257     53259     53260     53261     53260     53262     53263     53264
     53263     53265     53266     53267     53266     53268     53269     53270
     53269     53271     53272     53273     53272     53274     53275     53276
     53275     53277     53278     53279     53278     53280     53281     53282
     53281     53283     53284     53285     53284     53286     53287     53288
     53287     53289     53290     53291     53290     53292     53293     53294
     53293     53295     53296     53297     53296     53298     53299     53300
     53299     53301     53302     53303     53302     53304     53305     53306
     53305     53307     53308     53309     53308     53310     53311     53312
     53311     53313     53314     53315     53314     53316     53317     53318
     53317     53319     53320     53321     53320     53322     53323     53324
     53323     53325     53326     53327     53326     53328     53329     53330
     53329     53331     53332     53333     53332     53334     53335     53336
     53335     53337     53338     53339     53338     53340     53341     53342
     53341     53343     53344     53345     53344     53346     53347     53348
     53347     53349     53350     53351     53350     53352     53353     53354
     53353     53355     53356     53357     53356     53358     53359     53360
     53359     53361     53362     53363     53362     53364     53365     53366
     53365     53367     53368     53369     53368     53370     53371     53372
     53371     53373     53374     53375     53374     53376     53377     53378
     53377     53379     53380     53381     53380     53382     53383     53384
     53383     53385     53386     53387     53386     53388     53389     53390
     53389     53391     53392     53393     53392     53394     53395     53396
     53395     53397     53398     53399     53398     53400     53401     53402
     53401     53403     53404     53405     53404     53406     53407     53408
     53407     53409     53410     53411     53410     53412     53413     53414
     53413     53415     53416     53417     53416     53418     53419     53420
     53419     53421     53422     53423     53422     53424     53425     53426
     53425     53427     53428     53429     53428     53430     53431     53432
     53431     53433     53434     53435     53434     53436     53437     53438
     53437     53439     53440     53441     53440     53442     53443     53444
     53443     53445     53446     53447     53446     53448     53449     53450
     53449     53451     53452     53453     53452     53454     53455     53456
     53455     53457     53458     53459     53458     53460     53461     53462
     53461     53463     53464     53465     53464     53466     53467     53468
     53467     53469     53470     53471     53470     53472     53473     53474
     53473     53475     53476     53477     53476     53478     53479     53480
     53479     53481     53482     53483     53482     53484     53485     53486
     53485     53487     53488     53489     53488     53490     53491     53492
     53491     53493     53494     53495     53494     53496     53497     53498
     53497     53499     53500     53501     53500     53502     53503     53504
     53503     53505     53506     53507     53506     53508     53509     53510
     53509     53511     53512     53513     53512     53514     53515     53516
     53515     53517     53518     53519     53518     53520     53521     53522
     53521     53523     53524     53525     53524     53526     53527     53528
     53527     53529     53530     53531     53530     53532     53533     53534
     53533     53535     53536     53537     53536     53538     53539     53540
     53539     53541     53542     53543     53542     53544     53545     53546
     53545     53547     53548     53549     53548     53550     53551     53552
     53551     53553     53554     53555     53554     53556     53557     53558
     53557     53559     53560     53561     53560     53562     53563     53564
     53563     53565     53566     53567     53566     53568     53569     53570
     53569     53571     53572     53573     53572     53574     53575     53576
     53575     53577     53578     53579     53578     53580     53581     53582
     53581     53583     53584     53585     53584     53586     53587     53588
     53587     53589     53590     53591     53590     53592     53593     53594
     53593     53595     53596     53597     53596     53598     53599     53600
     53599     53601     53602     53603     53602     53604     53605     53606
     53605     53607     53608     53609     53608     53610     53611     53612
     53611     53613     53614     53615     53614     53616     53617     53618
     53617     53619     53620     53621     53620     53622     53623     53624
     53623     53625     53626     53627     53626     53628     53629     53630
     53629     53631     53632     53633     53632     53634     53635     53636
     53635     53637     53638     53639     53638     53640     53641     53642
     53641     53643     53644     53645     53644     53646     53647     53648
     53647     53649     53650     53651     53650     53652     53653     53654
     53653     53655     53656     53657     53656     53658     53659     53660
     53659     53661     53662     53663     53662     53664     53665     53666
     53665     53667     53668     53669     53668     53670     53671     53672
     53671     53673     53674     53675     53674     53676     53677     53678
     53677     53679     53680     53681     53680     53682     53683     53684
     53683     53685     53686     53687     53686     53688     53689     53690
     53689     53691     53692     53693     53692     53694     53695     53696
     53695     53697     53698     53699     53698     53700     53701     53702
     53701     53703     53704     53705     53704     53706     53707     53708
     53707     53709     53710     53711     53710     53712     53713     53714
     53713     53715     53716     53717     53716     53718     53719     53720
     53719     53721     53722     53723     53722     53724     53725     53726
     53725     53727     53728     53729     53728     53730     53731     53732
     53731     53733     53734     53735     53734     53736     53737     53738
     53737     53739     53740     53741     53740     53742     53743     53744
     53743     53745     53746     53747     53746     53748     53749     53750
     53749     53751     53752     53753     53752     53754     53755     53756
     53755     53757     53758     53759     53758     53760     53761     53762
     53761     53763     53764     53765     53764     53766     53767     53768
     53767     53769     53770     53771     53770     53772     53773     53774
     53773     53775     53776     53777     53776     53778     53779     53780
     53779     53781     53782     53783     53782     53784     53785     53786
     53785     53787     53788     53789     53788     53790     53791     53792
     53791     53793     53794     53795     53794     53796     53797     53798
     53797     53799     53800     53801     53800     53802     53803     53804
     53803     53805     53806     53807     53806     53808     53809     53810
     53809     53811     53812     53813     53812     53814     53815     53816
     53815     53817     53818     53819     53818     53820     53821     53822
     53821     53823     53824     53825     53824     53826     53827     53828
     53827     53829     53830     53831     53830     53832     53833     53834
     53833     53835     53836     53837     53836     53838     53839     53840
     53839     53841     53842     53843     53842     53844     53845     53846
     53845     53847     53848     53849     53848     53850     53851     53852
     53851     53853     53854     53855     53854     53856     53857     53858
     53857     53859     53860     53861     53860     53862     53863     53864
     53863     53865     53866     53867     53866     53868     53869     53870
     53869     53871     53872     53873     53872     53874     53875     53876
     53875     53877     53878     53879     53878     53880     53881     53882
     53881     53883     53884     53885     53884     53886     53887     53888
     53887     53889     53890     53891     53890     53892     53893     53894
     53893     53895     53896     53897     53896     53898     53899     53900
     53899     53901     53902     53903     53902     53904     53905     53906
     53905     53907     53908     53909     53908     53910     53911     53912
     53911     53913     53914     53915     53914     53916     53917     53918
     53917     53919     53920     53921     53920     53922     53923     53924
     53923     53925     53926     53927     53926     53928     53929     53930
     53929     53931     53932     53933     53932     53934     53935     53936
     53935     53937     53938     53939     53938     53940     53941     53942
     53941     53943     53944     53945     53944     53946     53947     53948
     53947     53949     53950     53951     53950     53952     53953     53954
     53953     53955     53956     53957     53956     53958     53959     53960
     53959     53961     53962     53963     53962     53964     53965     53966
     53965     53967     53968     53969     53968     53970     53971     53972
     53971     53973     53974     53975     53974     53976     53977     53978
     53977     53979     53980     53981     53980     53982     53983     53984
     53983     53985     53986     53987     53986     53988     53989     53990
     53989     53991     53992     53993     53992     53994     53995     53996
     53995     53997     53998     53999     53998     54000     54001     54002
     54001     54003     54004     54005     54004     54006     54007     54008
     54007     54009     54010     54011     54010     54012     54013     54014
     54013     54015     54016     54017     54016     54018     54019     54020
     54019     54021     54022     54023     54022     54024     54025     54026
     54025     54027     54028     54029     54028     54030     54031     54032
     54031     54033     54034     54035     54034     54036     54037     54038
     54037     54039     54040     54041     54040     54042     54043     54044
     54043     54045     54046     54047     54046     54048     54049     54050
     54049     54051     54052     54053     54052     54054     54055     54056
     54055     54057     54058     54059     54058     54060     54061     54062
     54061     54063     54064     54065     54064     54066     54067     54068
     54067     54069     54070     54071     54070     54072     54073     54074
     54073     54075     54076     54077     54076     54078     54079     54080
     54079     54081     54082     54083     54082     54084     54085     54086
     54085     54087     54088     54089     54088     54090     54091     54092
     54091     54093     54094     54095     54094     54096     54097     54098
     54097     54099     54100     54101     54100     54102     54103     54104
     54103     54105     54106     54107     54106     54108     54109     54110
     54109     54111     54112     54113     54112     54114     54115     54116
     54115     54117     54118     54119     54118     54120     54121     54122
     54121     54123     54124     54125     54124     54126     54127     54128
     54127     54129     54130     54131     54130     54132     54133     54134
     54133     54135     54136     54137     54136     54138     54139     54140
     54139     54141     54142     54143     54142     54144     54145     54146
     54145     54147     54148     54149     54148     54150     54151     54152
     54151     54153     54154     54155     54154     54156     54157     54158
     54157     54159     54160     54161     54160     54162     54163     54164
     54163     54165     54166     54167     54166     54168     54169     54170
     54169     54171     54172     54173     54172     54174     54175     54176
     54175     54177     54178     54179     54178     54180     54181     54182
     54181     54183     54184     54185     54184     54186     54187     54188
     54187     54189     54190     54191     54190     54192     54193     54194
     54193     54195     54196     54197     54196     54198     54199     54200
     54199     54201     54202     54203     54202     54204     54205     54206
     54205     54207     54208     54209     54208     54210     54211     54212
     54211     54213     54214     54215     54214     54216     54217     54218
     54217     54219     54220     54221     54220     54222     54223     54224
     54223     54225     54226     54227     54226     54228     54229     54230
     54229     54231     54232     54233     54232     54234     54235     54236
     54235     54237     54238     54239     54238     54240     54241     54242
     54241     54243     54244     54245     54244     54246     54247     54248
     54247     54249     54250     54251     54250     54252     54253     54254
     54253     54255     54256     54257     54256     54258     54259     54260
     54259     54261     54262     54263     54262     54264     54265     54266
     54265     54267     54268     54269     54268     54270     54271     54272
     54271     54273     54274     54275     54274     54276     54277     54278
     54277     54279     54280     54281     54280     54282     54283     54284
     54283     54285     54286     54287     54286     54288     54289     54290
     54289     54291     54292     54293     54292     54294     54295     54296
     54295     54297     54298     54299     54298     54300     54301     54302
     54301     54303     54304     54305     54304     54306     54307     54308
     54307     54309     54310     54311     54310     54312     54313     54314
     54313     54315     54316     54317     54316     54318     54319     54320
     54319     54321     54322     54323     54322     54324     54325     54326
     54325     54327     54328     54329     54328     54330     54331     54332
     54331     54333     54334     54335     54334     54336     54337     54338
     54337     54339     54340     54341     54340     54342     54343     54344
     54343     54345     54346     54347     54346     54348     54349     54350
     54349     54351     54352     54353     54352     54354     54355     54356
     54355     54357     54358     54359     54358     54360     54361     54362
     54361     54363     54364     54365     54364     54366     54367     54368
     54367     54369     54370     54371     54370     54372     54373     54374
     54373     54375     54376     54377     54376     54378     54379     54380
     54379     54381     54382     54383     54382     54384     54385     54386
     54385     54387     54388     54389     54388     54390     54391     54392
     54391     54393     54394     54395     54394     54396     54397     54398
     54397     54399     54400     54401     54400     54402     54403     54404
     54403     54405     54406     54407     54406     54408     54409     54410
     54409     54411     54412     54413     54412     54414     54415     54416
     54415     54417     54418     54419     54418     54420     54421     54422
     54421     54423     54424     54425     54424     54426     54427     54428
     54427     54429     54430     54431     54430     54432     54433     54434
     54433     54435     54436     54437     54436     54438     54439     54440
     54439     54441     54442     54443     54442     54444     54445     54446
     54445     54447     54448     54449     54448     54450     54451     54452
     54451     54453     54454     54455     54454     54456     54457     54458
     54457     54459     54460     54461     54460     54462     54463     54464
     54463     54465     54466     54467     54466     54468     54469     54470
     54469     54471     54472     54473     54472     54474     54475     54476
     54475     54477     54478     54479     54478     54480     54481     54482
     54481     54483     54484     54485     54484     54486     54487     54488
     54487     54489     54490     54491     54490     54492     54493     54494
     54493     54495     54496     54497     54496     54498     54499     54500
     54499     54501     54502     54503     54502     54504     54505     54506
     54505     54507     54508     54509     54508     54510     54511     54512
     54511     54513     54514     54515     54514     54516     54517     54518
     54517     54519     54520     54521     54520     54522     54523     54524
     54523     54525     54526     54527     54526     54528     54529     54530
     54529     54531     54532     54533     54532     54534     54535     54536
     54535     54537     54538     54539     54538     54540     54541     54542
     54541     54543     54544     54545     54544     54546     54547     54548
     54547     54549     54550     54551     54550     54552     54553     54554
     54553     54555     54556     54557     54556     54558     54559     54560
     54559     54561     54562     54563     54562     54564     54565     54566
     54565     54567     54568     54569     54568     54570     54571     54572
     54571     54573     54574     54575     54574     54576     54577     54578
     54577     54579     54580     54581     54580     54582     54583     54584
     54583     54585     54586     54587     54586     54588     54589     54590
     54589     54591     54592     54593     54592     54594     54595     54596
     54595     54597     54598     54599     54598     54600     54601     54602
     54601     54603     54604     54605     54604     54606     54607     54608
     54607     54609     54610     54611     54610     54612     54613     54614
     54613     54615     54616     54617     54616     54618     54619     54620
     54619     54621     54622     54623     54622     54624     54625     54626
     54625     54627     54628     54629     54628     54630     54631     54632
     54631     54633     54634     54635     54634     54636     54637     54638
     54637     54639     54640     54641     54640     54642     54643     54644
     54643     54645     54646     54647     54646     54648     54649     54650
     54649     54651     54652     54653     54652     54654     54655     54656
     54655     54657     54658     54659     54658     54660     54661     54662
     54661     54663     54664     54665     54664     54666     54667     54668
     54667     54669     54670     54671     54670     54672     54673     54674
     54673     54675     54676     54677     54676     54678     54679     54680
     54679     54681     54682     54683     54682     54684     54685     54686
     54685     54687     54688     54689     54688     54690     54691     54692
     54691     54693     54694     54695     54694     54696     54697     54698
     54697     54699     54700     54701     54700     54702     54703     54704
     54703     54705     54706     54707     54706     54708     54709     54710
     54709     54711     54712     54713     54712     54714     54715     54716
     54715     54717     54718     54719     54718     54720     54721     54722
     54721     54723     54724     54725     54724     54726     54727     54728
     54727     54729     54730     54731     54730     54732     54733     54734
     54733     54735     54736     54737     54736     54738     54739     54740
     54739     54741     54742     54743     54742     54744     54745     54746
     54745     54747     54748     54749     54748     54750     54751     54752
     54751     54753     54754     54755     54754     54756     54757     54758
     54757     54759     54760     54761     54760     54762     54763     54764
     54763     54765     54766     54767     54766     54768     54769     54770
     54769     54771     54772     54773     54772     54774     54775     54776
     54775     54777     54778     54779     54778     54780     54781     54782
     54781     54783     54784     54785     54784     54786     54787     54788
     54787     54789     54790     54791     54790     54792     54793     54794
     54793     54795     54796     54797     54796     54798     54799     54800
     54799     54801     54802     54803     54802     54804     54805     54806
     54805     54807     54808     54809     54808     54810     54811     54812
     54811     54813     54814     54815     54814     54816     54817     54818
     54817     54819     54820     54821     54820     54822     54823     54824
     54823     54825     54826     54827     54826     54828     54829     54830
     54829     54831     54832     54833     54832     54834     54835     54836
     54835     54837     54838     54839     54838     54840     54841     54842
     54841     54843     54844     54845     54844     54846     54847     54848
     54847     54849     54850     54851     54850     54852     54853     54854
     54853     54855     54856     54857     54856     54858     54859     54860
     54859     54861     54862     54863     54862     54864     54865     54866
     54865     54867     54868     54869     54868     54870     54871     54872
     54871     54873     54874     54875     54874     54876     54877     54878
     54877     54879     54880     54881     54880     54882     54883     54884
     54883     54885     54886     54887     54886     54888     54889     54890
     54889     54891     54892     54893     54892     54894     54895     54896
     54895     54897     54898     54899     54898     54900     54901     54902
     54901     54903     54904     54905     54904     54906     54907     54908
     54907     54909     54910     54911     54910     54912     54913     54914
     54913     54915     54916     54917     54916     54918     54919     54920
     54919     54921     54922     54923     54922     54924     54925     54926
     54925     54927     54928     54929     54928     54930     54931     54932
     54931     54933     54934     54935     54934     54936     54937     54938
     54937     54939     54940     54941     54940     54942     54943     54944
     54943     54945     54946     54947     54946     54948     54949     54950
     54949     54951     54952     54953     54952     54954     54955     54956
     54955     54957     54958     54959     54958     54960     54961     54962
     54961     54963     54964     54965     54964     54966     54967     54968
     54967     54969     54970     54971     54970     54972     54973     54974
     54973     54975     54976     54977     54976     54978     54979     54980
     54979     54981     54982     54983     54982     54984     54985     54986
     54985     54987     54988     54989     54988     54990     54991     54992
     54991     54993     54994     54995     54994     54996     54997     54998
     54997     54999     55000     55001     55000     55002     55003     55004
     55003     55005     55006     55007     55006     55008     55009     55010
     55009     55011     55012     55013     55012     55014     55015     55016
     55015     55017     55018     55019     55018     55020     55021     55022
     55021     55023     55024     55025     55024     55026     55027     55028
     55027     55029     55030     55031     55030     55032     55033     55034
     55033     55035     55036     55037     55036     55038     55039     55040
     55039     55041     55042     55043     55042     55044     55045     55046
     55045     55047     55048     55049     55048     55050     55051     55052
     55051     55053     55054     55055     55054     55056     55057     55058
     55057     55059     55060     55061     55060     55062     55063     55064
     55063     55065     55066     55067     55066     55068     55069     55070
     55069     55071     55072     55073     55072     55074     55075     55076
     55075     55077     55078     55079     55078     55080     55081     55082
     55081     55083     55084     55085     55084     55086     55087     55088
     55087     55089     55090     55091     55090     55092     55093     55094
     55093     55095     55096     55097     55096     55098     55099     55100
     55099     55101     55102     55103     55102     55104     55105     55106
     55105     55107     55108     55109     55108     55110     55111     55112
     55111     55113     55114     55115     55114     55116     55117     55118
     55117     55119     55120     55121     55120     55122     55123     55124
     55123     55125     55126     55127     55126     55128     55129     55130
     55129     55131     55132     55133     55132     55134     55135     55136
     55135     55137     55138     55139     55138     55140     55141     55142
     55141     55143     55144     55145     55144     55146     55147     55148
     55147     55149     55150     55151     55150     55152     55153     55154
     55153     55155     55156     55157     55156     55158     55159     55160
     55159     55161     55162     55163     55162     55164     55165     55166
     55165     55167     55168     55169     55168     55170     55171     55172
     55171     55173     55174     55175     55174     55176     55177     55178
     55177     55179     55180     55181     55180     55182     55183     55184
     55183     55185     55186     55187     55186     55188     55189     55190
     55189     55191     55192     55193     55192     55194     55195     55196
     55195     55197     55198     55199     55198     55200     55201     55202
     55201     55203     55204     55205     55204     55206     55207     55208
     55207     55209     55210     55211     55210     55212     55213     55214
     55213     55215     55216     55217     55216     55218     55219     55220
     55219     55221     55222     55223     55222     55224     55225     55226
     55225     55227     55228     55229     55228     55230     55231     55232
     55231     55233     55234     55235     55234     55236     55237     55238
     55237     55239     55240     55241     55240     55242     55243     55244
     55243     55245     55246     55247     55246     55248     55249     55250
     55249     55251     55252     55253     55252     55254     55255     55256
     55255     55257     55258     55259     55258     55260     55261     55262
     55261     55263     55264     55265     55264     55266     55267     55268
     55267     55269     55270     55271     55270     55272     55273     55274
     55273     55275     55276     55277     55276     55278     55279     55280
     55279     55281     55282     55283     55282     55284     55285     55286
     55285     55287     55288     55289     55288     55290     55291     55292
     55291     55293     55294     55295     55294     55296     55297     55298
     55297     55299     55300     55301     55300     55302     55303     55304
     55303     55305     55306     55307     55306     55308     55309     55310
     55309     55311     55312     55313     55312     55314     55315     55316
     55315     55317     55318     55319     55318     55320     55321     55322
     55321     55323     55324     55325     55324     55326     55327     55328
     55327     55329     55330     55331     55330     55332     55333     55334
     55333     55335     55336     55337     55336     55338     55339     55340
     55339     55341     55342     55343     55342     55344     55345     55346
     55345     55347     55348     55349     55348     55350     55351     55352
     55351     55353     55354     55355     55354     55356     55357     55358
     55357     55359     55360     55361     55360     55362     55363     55364
     55363     55365     55366     55367     55366     55368     55369     55370
     55369     55371     55372     55373     55372     55374     55375     55376
     55375     55377     55378     55379     55378     55380     55381     55382
     55381     55383     55384     55385     55384     55386     55387     55388
     55387     55389     55390     55391     55390     55392     55393     55394
     55393     55395     55396     55397     55396     55398     55399     55400
     55399     55401     55402     55403     55402     55404     55405     55406
     55405     55407     55408     55409     55408     55410     55411     55412
     55411     55413     55414     55415     55414     55416     55417     55418
     55417     55419     55420     55421     55420     55422     55423     55424
     55423     55425     55426     55427     55426     55428     55429     55430
     55429     55431     55432     55433     55432     55434     55435     55436
     55435     55437     55438     55439     55438     55440     55441     55442
     55441     55443     55444     55445     55444     55446     55447     55448
     55447     55449     55450     55451     55450     55452     55453     55454
     55453     55455     55456     55457     55456     55458     55459     55460
     55459     55461     55462     55463     55462     55464     55465     55466
     55465     55467     55468     55469     55468     55470     55471     55472
     55471     55473     55474     55475     55474     55476     55477     55478
     55477     55479     55480     55481     55480     55482     55483     55484
     55483     55485     55486     55487     55486     55488     55489     55490
     55489     55491     55492     55493     55492     55494     55495     55496
     55495     55497     55498     55499     55498     55500     55501     55502
     55501     55503     55504     55505     55504     55506     55507     55508
     55507     55509     55510     55511     55510     55512     55513     55514
     55513     55515     55516     55517     55516     55518     55519     55520
     55519     55521     55522     55523     55522     55524     55525     55526
     55525     55527     55528     55529     55528     55530     55531     55532
     55531     55533     55534     55535     55534     55536     55537     55538
     55537     55539     55540     55541     55540     55542     55543     55544
     55543     55545     55546     55547     55546     55548     55549     55550
     55549     55551     55552     55553     55552     55554     55555     55556
     55555     55557     55558     55559     55558     55560     55561     55562
     55561     55563     55564     55565     55564     55566     55567     55568
     55567     55569     55570     55571     55570     55572     55573     55574
     55573     55575     55576     55577     55576     55578     55579     55580
     55579     55581     55582     55583     55582     55584     55585     55586
     55585     55587     55588     55589     55588     55590     55591     55592
     55591     55593     55594     55595     55594     55596     55597     55598
     55597     55599     55600     55601     55600     55602     55603     55604
     55603     55605     55606     55607     55606     55608     55609     55610
     55609     55611     55612     55613     55612     55614     55615     55616
     55615     55617     55618     55619     55618     55620     55621     55622
     55621     55623     55624     55625     55624     55626     55627     55628
     55627     55629     55630     55631     55630     55632     55633     55634
     55633     55635     55636     55637     55636     55638     55639     55640
     55639     55641     55642     55643     55642     55644     55645     55646
     55645     55647     55648     55649     55648     55650     55651     55652
     55651     55653     55654     55655     55654     55656     55657     55658
     55657     55659     55660     55661     55660     55662     55663     55664
     55663     55665     55666     55667     55666     55668     55669     55670
     55669     55671     55672     55673     55672     55674     55675     55676
     55675     55677     55678     55679     55678     55680     55681     55682
     55681     55683     55684     55685     55684     55686     55687     55688
     55687     55689     55690     55691     55690     55692     55693     55694
     55693     55695     55696     55697     55696     55698     55699     55700
     55699     55701     55702     55703     55702     55704     55705     55706
     55705     55707     55708     55709     55708     55710     55711     55712
     55711     55713     55714     55715     55714     55716     55717     55718
     55717     55719     55720     55721     55720     55722     55723     55724
     55723     55725     55726     55727     55726     55728     55729     55730
     55729     55731     55732     55733     55732     55734     55735     55736
     55735     55737     55738     55739     55738     55740     55741     55742
     55741     55743     55744     55745     55744     55746     55747     55748
     55747     55749     55750     55751     55750     55752     55753     55754
     55753     55755     55756     55757     55756     55758     55759     55760
     55759     55761     55762     55763     55762     55764     55765     55766
     55765     55767     55768     55769     55768     55770     55771     55772
     55771     55773     55774     55775     55774     55776     55777     55778
     55777     55779     55780     55781     55780     55782     55783     55784
     55783     55785     55786     55787     55786     55788     55789     55790
     55789     55791     55792     55793     55792     55794     55795     55796
     55795     55797     55798     55799     55798     55800     55801     55802
     55801     55803     55804     55805     55804     55806     55807     55808
     55807     55809     55810     55811     55810     55812     55813     55814
     55813     55815     55816     55817     55816     55818     55819     55820
     55819     55821     55822     55823     55822     55824     55825     55826
     55825     55827     55828     55829     55828     55830     55831     55832
     55831     55833     55834     55835     55834     55836     55837     55838
     55837     55839     55840     55841     55840     55842     55843     55844
     55843     55845     55846     55847     55846     55848     55849     55850
     55849     55851     55852     55853     55852     55854     55855     55856
     55855     55857     55858     55859     55858     55860     55861     55862
     55861     55863     55864     55865     55864     55866     55867     55868
     55867     55869     55870     55871     55870     55872     55873     55874
     55873     55875     55876     55877     55876     55878     55879     55880
     55879     55881     55882     55883     55882     55884     55885     55886
     55885     55887     55888     55889     55888     55890     55891     55892
     55891     55893     55894     55895     55894     55896     55897     55898
     55897     55899     55900     55901     55900     55902     55903     55904
     55903     55905     55906     55907     55906     55908     55909     55910
     55909     55911     55912     55913     55912     55914     55915     55916
     55915     55917     55918     55919     55918     55920     55921     55922
     55921     55923     55924     55925     55924     55926     55927     55928
     55927     55929     55930     55931     55930     55932     55933     55934
     55933     55935     55936     55937     55936     55938     55939     55940
     55939     55941     55942     55943     55942     55944     55945     55946
     55945     55947     55948     55949     55948     55950     55951     55952
     55951     55953     55954     55955     55954     55956     55957     55958
     55957     55959     55960     55961     55960     55962     55963     55964
     55963     55965     55966     55967     55966     55968     55969     55970
     55969     55971     55972     55973     55972     55974     55975     55976
     55975     55977     55978     55979     55978     55980     55981     55982
     55981     55983     55984     55985     55984     55986     55987     55988
     55987     55989     55990     55991     55990     55992     55993     55994
     55993     55995     55996     55997     55996     55998     55999     56000
     55999     56001     56002     56003     56002     56004     56005     56006
     56005     56007     56008     56009     56008     56010     56011     56012
     56011     56013     56014     56015     56014     56016     56017     56018
     56017     56019     56020     56021     56020     56022     56023     56024
     56023     56025     56026     56027     56026     56028     56029     56030
     56029     56031     56032     56033     56032     56034     56035     56036
     56035     56037     56038     56039     56038     56040     56041     56042
     56041     56043     56044     56045     56044     56046     56047     56048
     56047     56049     56050     56051     56050     56052     56053     56054
     56053     56055     56056     56057     56056     56058     56059     56060
     56059     56061     56062     56063     56062     56064     56065     56066
     56065     56067     56068     56069     56068     56070     56071     56072
     56071     56073     56074     56075     56074     56076     56077     56078
     56077     56079     56080     56081     56080     56082     56083     56084
     56083     56085     56086     56087     56086     56088     56089     56090
     56089     56091     56092     56093     56092     56094     56095     56096
     56095     56097     56098     56099     56098     56100     56101     56102
     56101     56103     56104     56105     56104     56106     56107     56108
     56107     56109     56110     56111     56110     56112     56113     56114
     56113     56115     56116     56117     56116     56118     56119     56120
     56119     56121     56122     56123     56122     56124     56125     56126
     56125     56127     56128     56129     56128     56130     56131     56132
     56131     56133     56134     56135     56134     56136     56137     56138
     56137     56139     56140     56141     56140     56142     56143     56144
     56143     56145     56146     56147     56146     56148     56149     56150
     56149     56151     56152     56153     56152     56154     56155     56156
     56155     56157     56158     56159     56158     56160     56161     56162
     56161     56163     56164     56165     56164     56166     56167     56168
     56167     56169     56170     56171     56170     56172     56173     56174
     56173     56175     56176     56177     56176     56178     56179     56180
     56179     56181     56182     56183     56182     56184     56185     56186
     56185     56187     56188     56189     56188     56190     56191     56192
     56191     56193     56194     56195     56194     56196     56197     56198
     56197     56199     56200     56201     56200     56202     56203     56204
     56203     56205     56206     56207     56206     56208     56209     56210
     56209     56211     56212     56213     56212     56214     56215     56216
     56215     56217     56218     56219     56218     56220     56221     56222
     56221     56223     56224     56225     56224     56226     56227     56228
     56227     56229     56230     56231     56230     56232     56233     56234
     56233     56235     56236     56237     56236     56238     56239     56240
     56239     56241     56242     56243     56242     56244     56245     56246
     56245     56247     56248     56249     56248     56250     56251     56252
     56251     56253     56254     56255     56254     56256     56257     56258
     56257     56259     56260     56261     56260     56262     56263     56264
     56263     56265     56266     56267     56266     56268     56269     56270
     56269     56271     56272     56273     56272     56274     56275     56276
     56275     56277     56278     56279     56278     56280     56281     56282
     56281     56283     56284     56285     56284     56286     56287     56288
     56287     56289     56290     56291     56290     56292     56293     56294
     56293     56295     56296     56297     56296     56298     56299     56300
     56299     56301     56302     56303     56302     56304     56305     56306
     56305     56307     56308     56309     56308     56310     56311     56312
     56311     56313     56314     56315     56314     56316     56317     56318
     56317     56319     56320     56321     56320     56322     56323     56324
     56323     56325     56326     56327     56326     56328     56329     56330
     56329     56331     56332     56333     56332     56334     56335     56336
     56335     56337     56338     56339     56338     56340     56341     56342
     56341     56343     56344     56345     56344     56346     56347     56348
     56347     56349     56350     56351     56350     56352     56353     56354
     56353     56355     56356     56357     56356     56358     56359     56360
     56359     56361     56362     56363     56362     56364     56365     56366
     56365     56367     56368     56369     56368     56370     56371     56372
     56371     56373     56374     56375     56374     56376     56377     56378
     56377     56379     56380     56381     56380     56382     56383     56384
     56383     56385     56386     56387     56386     56388     56389     56390
     56389     56391     56392     56393     56392     56394     56395     56396
     56395     56397     56398     56399     56398     56400     56401     56402
     56401     56403     56404     56405     56404     56406     56407     56408
     56407     56409     56410     56411     56410     56412     56413     56414
     56413     56415     56416     56417     56416     56418     56419     56420
     56419     56421     56422     56423     56422     56424     56425     56426
     56425     56427     56428     56429     56428     56430     56431     56432
     56431     56433     56434     56435     56434     56436     56437     56438
     56437     56439     56440     56441     56440     56442     56443     56444
     56443     56445     56446     56447     56446     56448     56449     56450
     56449     56451     56452     56453     56452     56454     56455     56456
     56455     56457     56458     56459     56458     56460     56461     56462
     56461     56463     56464     56465     56464     56466     56467     56468
     56467     56469     56470     56471     56470     56472     56473     56474
     56473     56475     56476     56477     56476     56478     56479     56480
     56479     56481     56482     56483     56482     56484     56485     56486
     56485     56487     56488     56489     56488     56490     56491     56492
     56491     56493     56494     56495     56494     56496     56497     56498
     56497     56499     56500     56501     56500     56502     56503     56504
     56503     56505     56506     56507     56506     56508     56509     56510
     56509     56511     56512     56513     56512     56514     56515     56516
     56515     56517     56518     56519     56518     56520     56521     56522
     56521     56523     56524     56525     56524     56526     56527     56528
     56527     56529     56530     56531     56530     56532     56533     56534
     56533     56535     56536     56537     56536     56538     56539     56540
     56539     56541     56542     56543     56542     56544     56545     56546
     56545     56547     56548     56549     56548     56550     56551     56552
     56551     56553     56554     56555     56554     56556     56557     56558
     56557     56559     56560     56561     56560     56562     56563     56564
     56563     56565     56566     56567     56566     56568     56569     56570
     56569     56571     56572     56573     56572     56574     56575     56576
     56575     56577     56578     56579     56578     56580     56581     56582
     56581     56583     56584     56585     56584     56586     56587     56588
     56587     56589     56590     56591     56590     56592     56593     56594
     56593     56595     56596     56597     56596     56598     56599     56600
     56599     56601     56602     56603     56602     56604     56605     56606
     56605     56607     56608     56609     56608     56610     56611     56612
     56611     56613     56614     56615     56614     56616     56617     56618
     56617     56619     56620     56621     56620     56622     56623     56624
     56623     56625     56626     56627     56626     56628     56629     56630
     56629     56631     56632     56633     56632     56634     56635     56636
     56635     56637     56638     56639     56638     56640     56641     56642
     56641     56643     56644     56645     56644     56646     56647     56648
     56647     56649     56650     56651     56650     56652     56653     56654
     56653     56655     56656     56657     56656     56658     56659     56660
     56659     56661     56662     56663     56662     56664     56665     56666
     56665     56667     56668     56669     56668     56670     56671     56672
     56671     56673     56674     56675     56674     56676     56677     56678
     56677     56679     56680     56681     56680     56682     56683     56684
     56683     56685     56686     56687     56686     56688     56689     56690
     56689     56691     56692     56693     56692     56694     56695     56696
     56695     56697     56698     56699     56698     56700     56701     56702
     56701     56703     56704     56705     56704     56706     56707     56708
     56707     56709     56710     56711     56710     56712     56713     56714
     56713     56715     56716     56717     56716     56718     56719     56720
     56719     56721     56722     56723     56722     56724     56725     56726
     56725     56727     56728     56729     56728     56730     56731     56732
     56731     56733     56734     56735     56734     56736     56737     56738
     56737     56739     56740     56741     56740     56742     56743     56744
     56743     56745     56746     56747     56746     56748     56749     56750
     56749     56751     56752     56753     56752     56754     56755     56756
     56755     56757     56758     56759     56758     56760     56761     56762
     56761     56763     56764     56765     56764     56766     56767     56768
     56767     56769     56770     56771     56770     56772     56773     56774
     56773     56775     56776     56777     56776     56778     56779     56780
     56779     56781     56782     56783     56782     56784     56785     56786
     56785     56787     56788     56789     56788     56790     56791     56792
     56791     56793     56794     56795     56794     56796     56797     56798
     56797     56799     56800     56801     56800     56802     56803     56804
     56803     56805     56806     56807     56806     56808     56809     56810
     56809     56811     56812     56813     56812     56814     56815     56816
     56815     56817     56818     56819     56818     56820     56821     56822
     56821     56823     56824     56825     56824     56826     56827     56828
     56827     56829     56830     56831     56830     56832     56833     56834
     56833     56835     56836     56837     56836     56838     56839     56840
     56839     56841     56842     56843     56842     56844     56845     56846
     56845     56847     56848     56849     56848     56850     56851     56852
     56851     56853     56854     56855     56854     56856     56857     56858
     56857     56859     56860     56861     56860     56862     56863     56864
     56863     56865     56866     56867     56866     56868     56869     56870
     56869     56871     56872     56873     56872     56874     56875     56876
     56875     56877     56878     56879     56878     56880     56881     56882
     56881     56883     56884     56885     56884     56886     56887     56888
     56887     56889     56890     56891     56890     56892     56893     56894
     56893     56895     56896     56897     56896     56898     56899     56900
     56899     56901     56902     56903     56902     56904     56905     56906
     56905     56907     56908     56909     56908     56910     56911     56912
     56911     56913     56914     56915     56914     56916     56917     56918
     56917     56919     56920     56921     56920     56922     56923     56924
     56923     56925     56926     56927     56926     56928     56929     56930
     56929     56931     56932     56933     56932     56934     56935     56936
     56935     56937     56938     56939     56938     56940     56941     56942
     56941     56943     56944     56945     56944     56946     56947     56948
     56947     56949     56950     56951     56950     56952     56953     56954
     56953     56955     56956     56957     56956     56958     56959     56960
     56959     56961     56962     56963     56962     56964     56965     56966
     56965     56967     56968     56969     56968     56970     56971     56972
     56971     56973     56974     56975     56974     56976     56977     56978
     56977     56979     56980     56981     56980     56982     56983     56984
     56983     56985     56986     56987     56986     56988     56989     56990
     56989     56991     56992     56993     56992     56994     56995     56996
     56995     56997     56998     56999     56998     57000     57001     57002
     57001     57003     57004     57005     57004     57006     57007     57008
     57007     57009     57010     57011     57010     57012     57013     57014
     57013     57015     57016     57017     57016     57018     57019     57020
     57019     57021     57022     57023     57022     57024     57025     57026
     57025     57027     57028     57029     57028     57030     57031     57032
     57031     57033     57034     57035     57034     57036     57037     57038
     57037     57039     57040     57041     57040     57042     57043     57044
     57043     57045     57046     57047     57046     57048     57049     57050
     57049     57051     57052     57053     57052     57054     57055     57056
     57055     57057     57058     57059     57058     57060     57061     57062
     57061     57063     57064     57065     57064     57066     57067     57068
     57067     57069     57070     57071     57070     57072     57073     57074
     57073     57075     57076     57077     57076     57078     57079     57080
     57079     57081     57082     57083     57082     57084     57085     57086
     57085     57087     57088     57089     57088     57090     57091     57092
     57091     57093     57094     57095     57094     57096     57097     57098
     57097     57099     57100     57101     57100     57102     57103     57104
     57103     57105     57106     57107     57106     57108     57109     57110
     57109     57111     57112     57113     57112     57114     57115     57116
     57115     57117     57118     57119     57118     57120     57121     57122
     57121     57123     57124     57125     57124     57126     57127     57128
     57127     57129     57130     57131     57130     57132     57133     57134
     57133     57135     57136     57137     57136     57138     57139     57140
     57139     57141     57142     57143     57142     57144     57145     57146
     57145     57147     57148     57149     57148     57150     57151     57152
     57151     57153     57154     57155     57154     57156     57157     57158
     57157     57159     57160     57161     57160     57162     57163     57164
     57163     57165     57166     57167     57166     57168     57169     57170
     57169     57171     57172     57173     57172     57174     57175     57176
     57175     57177     57178     57179     57178     57180     57181     57182
     57181     57183     57184     57185     57184     57186     57187     57188
     57187     57189     57190     57191     57190     57192     57193     57194
     57193     57195     57196     57197     57196     57198     57199     57200
     57199     57201     57202     57203     57202     57204     57205     57206
     57205     57207     57208     57209     57208     57210     57211     57212
     57211     57213     57214     57215     57214     57216     57217     57218
     57217     57219     57220     57221     57220     57222     57223     57224
     57223     57225     57226     57227     57226     57228     57229     57230
     57229     57231     57232     57233     57232     57234     57235     57236
     57235     57237     57238     57239     57238     57240     57241     57242
     57241     57243     57244     57245     57244     57246     57247     57248
     57247     57249     57250     57251     57250     57252     57253     57254
     57253     57255     57256     57257     57256     57258     57259     57260
     57259     57261     57262     57263     57262     57264     57265     57266
     57265     57267     57268     57269     57268     57270     57271     57272
     57271     57273     57274     57275     57274     57276     57277     57278
     57277     57279     57280     57281     57280     57282     57283     57284
     57283     57285     57286     57287     57286     57288     57289     57290
     57289     57291     57292     57293     57292     57294     57295     57296
     57295     57297     57298     57299     57298     57300     57301     57302
     57301     57303     57304     57305     57304     57306     57307     57308
     57307     57309     57310     57311     57310     57312     57313     57314
     57313     57315     57316     57317     57316     57318     57319     57320
     57319     57321     57322     57323     57322     57324     57325     57326
     57325     57327     57328     57329     57328     57330     57331     57332
     57331     57333     57334     57335     57334     57336     57337     57338
     57337     57339     57340     57341     57340     57342     57343     57344
     57343     57345     57346     57347     57346     57348     57349     57350
     57349     57351     57352     57353     57352     57354     57355     57356
     57355     57357     57358     57359     57358     57360     57361     57362
     57361     57363     57364     57365     57364     57366     57367     57368
     57367     57369     57370     57371     57370     57372     57373     57374
     57373     57375     57376     57377     57376     57378     57379     57380
     57379     57381     57382     57383     57382     57384     57385     57386
     57385     57387     57388     57389     57388     57390     57391     57392
     57391     57393     57394     57395     57394     57396     57397     57398
     57397     57399     57400     57401     57400     57402     57403     57404
     57403     57405     57406     57407     57406     57408     57409     57410
     57409     57411     57412     57413     57412     57414     57415     57416
     57415     57417     57418     57419     57418     57420     57421     57422
     57421     57423     57424     57425     57424     57426     57427     57428
     57427     57429     57430     57431     57430     57432     57433     57434
     57433     57435     57436     57437     57436     57438     57439     57440
     57439     57441     57442     57443     57442     57444     57445     57446
     57445     57447     57448     57449     57448     57450     57451     57452
     57451     57453     57454     57455     57454     57456     57457     57458
     57457     57459     57460     57461     57460     57462     57463     57464
     57463     57465     57466     57467     57466     57468     57469     57470
     57469     57471     57472     57473     57472     57474     57475     57476
     57475     57477     57478     57479     57478     57480     57481     57482
     57481     57483     57484     57485     57484     57486     57487     57488
     57487     57489     57490     57491     57490     57492     57493     57494
     57493     57495     57496     57497     57496     57498     57499     57500
     57499     57501     57502     57503     57502     57504     57505     57506
     57505     57507     57508     57509     57508     57510     57511     57512
     57511     57513     57514     57515     57514     57516     57517     57518
     57517     57519     57520     57521     57520     57522     57523     57524
     57523     57525     57526     57527     57526     57528     57529     57530
     57529     57531     57532     57533     57532     57534     57535     57536
     57535     57537     57538     57539     57538     57540     57541     57542
     57541     57543     57544     57545     57544     57546     57547     57548
     57547     57549     57550     57551     57550     57552     57553     57554
     57553     57555     57556     57557     57556     57558     57559     57560
     57559     57561     57562     57563     57562     57564     57565     57566
     57565     57567     57568     57569     57568     57570     57571     57572
     57571     57573     57574     57575     57574     57576     57577     57578
     57577     57579     57580     57581     57580     57582     57583     57584
     57583     57585     57586     57587     57586     57588     57589     57590
     57589     57591     57592     57593     57592     57594     57595     57596
     57595     57597     57598     57599     57598     57600     57601     57602
     57601     57603     57604     57605     57604     57606     57607     57608
     57607     57609     57610     57611     57610     57612     57613     57614
     57613     57615     57616     57617     57616     57618     57619     57620
     57619     57621     57622     57623     57622     57624     57625     57626
     57625     57627     57628     57629     57628     57630     57631     57632
     57631     57633     57634     57635     57634     57636     57637     57638
     57637     57639     57640     57641     57640     57642     57643     57644
     57643     57645     57646     57647     57646     57648     57649     57650
     57649     57651     57652     57653     57652     57654     57655     57656
     57655     57657     57658     57659     57658     57660     57661     57662
     57661     57663     57664     57665     57664     57666     57667     57668
     57667     57669     57670     57671     57670     57672     57673     57674
     57673     57675     57676     57677     57676     57678     57679     57680
     57679     57681     57682     57683     57682     57684     57685     57686
     57685     57687     57688     57689     57688     57690     57691     57692
     57691     57693     57694     57695     57694     57696     57697     57698
     57697     57699     57700     57701     57700     57702     57703     57704
     57703     57705     57706     57707     57706     57708     57709     57710
     57709     57711     57712     57713     57712     57714     57715     57716
     57715     57717     57718     57719     57718     57720     57721     57722
     57721     57723     57724     57725     57724     57726     57727     57728
     57727     57729     57730     57731     57730     57732     57733     57734
     57733     57735     57736     57737     57736     57738     57739     57740
     57739     57741     57742     57743     57742     57744     57745     57746
     57745     57747     57748     57749     57748     57750     57751     57752
     57751     57753     57754     57755     57754     57756     57757     57758
     57757     57759     57760     57761     57760     57762     57763     57764
     57763     57765     57766     57767     57766     57768     57769     57770
     57769     57771     57772     57773     57772     57774     57775     57776
     57775     57777     57778     57779     57778     57780     57781     57782
     57781     57783     57784     57785     57784     57786     57787     57788
     57787     57789     57790     57791     57790     57792     57793     57794
     57793     57795     57796     57797     57796     57798     57799     57800
     57799     57801     57802     57803     57802     57804     57805     57806
     57805     57807     57808     57809     57808     57810     57811     57812
     57811     57813     57814     57815     57814     57816     57817     57818
     57817     57819     57820     57821     57820     57822     57823     57824
     57823     57825     57826     57827     57826     57828     57829     57830
     57829     57831     57832     57833     57832     57834     57835     57836
     57835     57837     57838     57839     57838     57840     57841     57842
     57841     57843     57844     57845     57844     57846     57847     57848
     57847     57849     57850     57851     57850     57852     57853     57854
     57853     57855     57856     57857     57856     57858     57859     57860
     57859     57861     57862     57863     57862     57864     57865     57866
     57865     57867     57868     57869     57868     57870     57871     57872
     57871     57873     57874     57875     57874     57876     57877     57878
     57877     57879     57880     57881     57880     57882     57883     57884
     57883     57885     57886     57887     57886     57888     57889     57890
     57889     57891     57892     57893     57892     57894     57895     57896
     57895     57897     57898     57899     57898     57900     57901     57902
     57901     57903     57904     57905     57904     57906     57907     57908
     57907     57909     57910     57911     57910     57912     57913     57914
     57913     57915     57916     57917     57916     57918     57919     57920
     57919     57921     57922     57923     57922     57924     57925     57926
     57925     57927     57928     57929     57928     57930     57931     57932
     57931     57933     57934     57935     57934     57936     57937     57938
     57937     57939     57940     57941     57940     57942     57943     57944
     57943     57945     57946     57947     57946     57948     57949     57950
     57949     57951     57952     57953     57952     57954     57955     57956
     57955     57957     57958     57959     57958     57960     57961     57962
     57961     57963     57964     57965     57964     57966     57967     57968
     57967     57969     57970     57971     57970     57972     57973     57974
     57973     57975     57976     57977     57976     57978     57979     57980
     57979     57981     57982     57983     57982     57984     57985     57986
     57985     57987     57988     57989     57988     57990     57991     57992
     57991     57993     57994     57995     57994     57996     57997     57998
     57997     57999     58000     58001     58000     58002     58003     58004
     58003     58005     58006     58007     58006     58008     58009     58010
     58009     58011     58012     58013     58012     58014     58015     58016
     58015     58017     58018     58019     58018     58020     58021     58022
     58021     58023     58024     58025     58024     58026     58027     58028
     58027     58029     58030     58031     58030     58032     58033     58034
     58033     58035     58036     58037     58036     58038     58039     58040
     58039     58041     58042     58043     58042     58044     58045     58046
     58045     58047     58048     58049     58048     58050     58051     58052
     58051     58053     58054     58055     58054     58056     58057     58058
     58057     58059     58060     58061     58060     58062     58063     58064
     58063     58065     58066     58067     58066     58068     58069     58070
     58069     58071     58072     58073     58072     58074     58075     58076
     58075     58077     58078     58079     58078     58080     58081     58082
     58081     58083     58084     58085     58084     58086     58087     58088
     58087     58089     58090     58091     58090     58092     58093     58094
     58093     58095     58096     58097     58096     58098     58099     58100
     58099     58101     58102     58103     58102     58104     58105     58106
     58105     58107     58108     58109     58108     58110     58111     58112
     58111     58113     58114     58115     58114     58116     58117     58118
     58117     58119     58120     58121     58120     58122     58123     58124
     58123     58125     58126     58127     58126     58128     58129     58130
     58129     58131     58132     58133     58132     58134     58135     58136
     58135     58137     58138     58139     58138     58140     58141     58142
     58141     58143     58144     58145     58144     58146     58147     58148
     58147     58149     58150     58151     58150     58152     58153     58154
     58153     58155     58156     58157     58156     58158     58159     58160
     58159     58161     58162     58163     58162     58164     58165     58166
     58165     58167     58168     58169     58168     58170     58171     58172
     58171     58173     58174     58175     58174     58176     58177     58178
     58177     58179     58180     58181     58180     58182     58183     58184
     58183     58185     58186     58187     58186     58188     58189     58190
     58189     58191     58192     58193     58192     58194     58195     58196
     58195     58197     58198     58199     58198     58200     58201     58202
     58201     58203     58204     58205     58204     58206     58207     58208
     58207     58209     58210     58211     58210     58212     58213     58214
     58213     58215     58216     58217     58216     58218     58219     58220
     58219     58221     58222     58223     58222     58224     58225     58226
     58225     58227     58228     58229     58228     58230     58231     58232
     58231     58233     58234     58235     58234     58236     58237     58238
     58237     58239     58240     58241     58240     58242     58243     58244
     58243     58245     58246     58247     58246     58248     58249     58250
     58249     58251     58252     58253     58252     58254     58255     58256
     58255     58257     58258     58259     58258     58260     58261     58262
     58261     58263     58264     58265     58264     58266     58267     58268
     58267     58269     58270     58271     58270     58272     58273     58274
     58273     58275     58276     58277     58276     58278     58279     58280
     58279     58281     58282     58283     58282     58284     58285     58286
     58285     58287     58288     58289     58288     58290     58291     58292
     58291     58293     58294     58295     58294     58296     58297     58298
     58297     58299     58300     58301     58300     58302     58303     58304
     58303     58305     58306     58307     58306     58308     58309     58310
     58309     58311     58312     58313     58312     58314     58315     58316
     58315     58317     58318     58319     58318     58320     58321     58322
     58321     58323     58324     58325     58324     58326     58327     58328
     58327     58329     58330     58331     58330     58332     58333     58334
     58333     58335     58336     58337     58336     58338     58339     58340
     58339     58341     58342     58343     58342     58344     58345     58346
     58345     58347     58348     58349     58348     58350     58351     58352
     58351     58353     58354     58355     58354     58356     58357     58358
     58357     58359     58360     58361     58360     58362     58363     58364
     58363     58365     58366     58367     58366     58368     58369     58370
     58369     58371     58372     58373     58372     58374     58375     58376
     58375     58377     58378     58379     58378     58380     58381     58382
     58381     58383     58384     58385     58384     58386     58387     58388
     58387     58389     58390     58391     58390     58392     58393     58394
     58393     58395     58396     58397     58396     58398     58399     58400
     58399     58401     58402     58403     58402     58404     58405     58406
     58405     58407     58408     58409     58408     58410     58411     58412
     58411     58413     58414     58415     58414     58416     58417     58418
     58417     58419     58420     58421     58420     58422     58423     58424
     58423     58425     58426     58427     58426     58428     58429     58430
     58429     58431     58432     58433     58432     58434     58435     58436
     58435     58437     58438     58439     58438     58440     58441     58442
     58441     58443     58444     58445     58444     58446     58447     58448
     58447     58449     58450     58451     58450     58452     58453     58454
     58453     58455     58456     58457     58456     58458     58459     58460
     58459     58461     58462     58463     58462     58464     58465     58466
     58465     58467     58468     58469     58468     58470     58471     58472
     58471     58473     58474     58475     58474     58476     58477     58478
     58477     58479     58480     58481     58480     58482     58483     58484
     58483     58485     58486     58487     58486     58488     58489     58490
     58489     58491     58492     58493     58492     58494     58495     58496
     58495     58497     58498     58499     58498     58500     58501     58502
     58501     58503     58504     58505     58504     58506     58507     58508
     58507     58509     58510     58511     58510     58512     58513     58514
     58513     58515     58516     58517     58516     58518     58519     58520
     58519     58521     58522     58523     58522     58524     58525     58526
     58525     58527     58528     58529     58528     58530     58531     58532
     58531     58533     58534     58535     58534     58536     58537     58538
     58537     58539     58540     58541     58540     58542     58543     58544
     58543     58545     58546     58547     58546     58548     58549     58550
     58549     58551     58552     58553     58552     58554     58555     58556
     58555     58557     58558     58559     58558     58560     58561     58562
     58561     58563     58564     58565     58564     58566     58567     58568
     58567     58569     58570     58571     58570     58572     58573     58574
     58573     58575     58576     58577     58576     58578     58579     58580
     58579     58581     58582     58583     58582     58584     58585     58586
     58585     58587     58588     58589     58588     58590     58591     58592
     58591     58593     58594     58595     58594     58596     58597     58598
     58597     58599     58600     58601     58600     58602     58603     58604
     58603     58605     58606     58607     58606     58608     58609     58610
     58609     58611     58612     58613     58612     58614     58615     58616
     58615     58617     58618     58619     58618     58620     58621     58622
     58621     58623     58624     58625     58624     58626     58627     58628
     58627     58629     58630     58631     58630     58632     58633     58634
     58633     58635     58636     58637     58636     58638     58639     58640
     58639     58641     58642     58643     58642     58644     58645     58646
     58645     58647     58648     58649     58648     58650     58651     58652
     58651     58653     58654     58655     58654     58656     58657     58658
     58657     58659     58660     58661     58660     58662     58663     58664
     58663     58665     58666     58667     58666     58668     58669     58670
     58669     58671     58672     58673     58672     58674     58675     58676
     58675     58677     58678     58679     58678     58680     58681     58682
     58681     58683     58684     58685     58684     58686     58687     58688
     58687     58689     58690     58691     58690     58692     58693     58694
     58693     58695     58696     58697     58696     58698     58699     58700
     58699     58701     58702     58703     58702     58704     58705     58706
     58705     58707     58708     58709     58708     58710     58711     58712
     58711     58713     58714     58715     58714     58716     58717     58718
     58717     58719     58720     58721     58720     58722     58723     58724
     58723     58725     58726     58727     58726     58728     58729     58730
     58729     58731     58732     58733     58732     58734     58735     58736
     58735     58737     58738     58739     58738     58740     58741     58742
     58741     58743     58744     58745     58744     58746     58747     58748
     58747     58749     58750     58751     58750     58752     58753     58754
     58753     58755     58756     58757     58756     58758     58759     58760
     58759     58761     58762     58763     58762     58764     58765     58766
     58765     58767     58768     58769     58768     58770     58771     58772
     58771     58773     58774     58775     58774     58776     58777     58778
     58777     58779     58780     58781     58780     58782     58783     58784
     58783     58785     58786     58787     58786     58788     58789     58790
     58789     58791     58792     58793     58792     58794     58795     58796
     58795     58797     58798     58799     58798     58800     58801     58802
     58801     58803     58804     58805     58804     58806     58807     58808
     58807     58809     58810     58811     58810     58812     58813     58814
     58813     58815     58816     58817     58816     58818     58819     58820
     58819     58821     58822     58823     58822     58824     58825     58826
     58825     58827     58828     58829     58828     58830     58831     58832
     58831     58833     58834     58835     58834     58836     58837     58838
     58837     58839     58840     58841     58840     58842     58843     58844
     58843     58845     58846     58847     58846     58848     58849     58850
     58849     58851     58852     58853     58852     58854     58855     58856
     58855     58857     58858     58859     58858     58860     58861     58862
     58861     58863     58864     58865     58864     58866     58867     58868
     58867     58869     58870     58871     58870     58872     58873     58874
     58873     58875     58876     58877     58876     58878     58879     58880
     58879     58881     58882     58883     58882     58884     58885     58886
     58885     58887     58888     58889     58888     58890     58891     58892
     58891     58893     58894     58895     58894     58896     58897     58898
     58897     58899     58900     58901     58900     58902     58903     58904
     58903     58905     58906     58907     58906     58908     58909     58910
     58909     58911     58912     58913     58912     58914     58915     58916
     58915     58917     58918     58919     58918     58920     58921     58922
     58921     58923     58924     58925     58924     58926     58927     58928
     58927     58929     58930     58931     58930     58932     58933     58934
     58933     58935     58936     58937     58936     58938     58939     58940
     58939     58941     58942     58943     58942     58944     58945     58946
     58945     58947     58948     58949     58948     58950     58951     58952
     58951     58953     58954     58955     58954     58956     58957     58958
     58957     58959     58960     58961     58960     58962     58963     58964
     58963     58965     58966     58967     58966     58968     58969     58970
     58969     58971     58972     58973     58972     58974     58975     58976
     58975     58977     58978     58979     58978     58980     58981     58982
     58981     58983     58984     58985     58984     58986     58987     58988
     58987     58989     58990     58991     58990     58992     58993     58994
     58993     58995     58996     58997     58996     58998     58999     59000
     58999     59001     59002     59003     59002     59004     59005     59006
     59005     59007     59008     59009     59008     59010     59011     59012
     59011     59013     59014     59015     59014     59016     59017     59018
     59017     59019     59020     59021     59020     59022     59023     59024
     59023     59025     59026     59027     59026     59028     59029     59030
     59029     59031     59032     59033     59032     59034     59035     59036
     59035     59037     59038     59039     59038     59040     59041     59042
     59041     59043     59044     59045     59044     59046     59047     59048
     59047     59049     59050     59051     59050     59052     59053     59054
     59053     59055     59056     59057     59056     59058     59059     59060
     59059     59061     59062     59063     59062     59064     59065     59066
     59065     59067     59068     59069     59068     59070     59071     59072
     59071     59073     59074     59075     59074     59076     59077     59078
     59077     59079     59080     59081     59080     59082     59083     59084
     59083     59085     59086     59087     59086     59088     59089     59090
     59089     59091     59092     59093     59092     59094     59095     59096
     59095     59097     59098     59099     59098     59100     59101     59102
     59101     59103     59104     59105     59104     59106     59107     59108
     59107     59109     59110     59111     59110     59112     59113     59114
     59113     59115     59116     59117     59116     59118     59119     59120
     59119     59121     59122     59123     59122     59124     59125     59126
     59125     59127     59128     59129     59128     59130     59131     59132
     59131     59133     59134     59135     59134     59136     59137     59138
     59137     59139     59140     59141     59140     59142     59143     59144
     59143     59145     59146     59147     59146     59148     59149     59150
     59149     59151     59152     59153     59152     59154     59155     59156
     59155     59157     59158     59159     59158     59160     59161     59162
     59161     59163     59164     59165     59164     59166     59167     59168
     59167     59169     59170     59171     59170     59172     59173     59174
     59173     59175     59176     59177     59176     59178     59179     59180
     59179     59181     59182     59183     59182     59184     59185     59186
     59185     59187     59188     59189     59188     59190     59191     59192
     59191     59193     59194     59195     59194     59196     59197     59198
     59197     59199     59200     59201     59200     59202     59203     59204
     59203     59205     59206     59207     59206     59208     59209     59210
     59209     59211     59212     59213     59212     59214     59215     59216
     59215     59217     59218     59219     59218     59220     59221     59222
     59221     59223     59224     59225     59224     59226     59227     59228
     59227     59229     59230     59231     59230     59232     59233     59234
     59233     59235     59236     59237     59236     59238     59239     59240
     59239     59241     59242     59243     59242     59244     59245     59246
     59245     59247     59248     59249     59248     59250     59251     59252
     59251     59253     59254     59255     59254     59256     59257     59258
     59257     59259     59260     59261     59260     59262     59263     59264
     59263     59265     59266     59267     59266     59268     59269     59270
     59269     59271     59272     59273     59272     59274     59275     59276
     59275     59277     59278     59279     59278     59280     59281     59282
     59281     59283     59284     59285     59284     59286     59287     59288
     59287     59289     59290     59291     59290     59292     59293     59294
     59293     59295     59296     59297     59296     59298     59299     59300
     59299     59301     59302     59303     59302     59304     59305     59306
     59305     59307     59308     59309     59308     59310     59311     59312
     59311     59313     59314     59315     59314     59316     59317     59318
     59317     59319     59320     59321     59320     59322     59323     59324
     59323     59325     59326     59327     59326     59328     59329     59330
     59329     59331     59332     59333     59332     59334     59335     59336
     59335     59337     59338     59339     59338     59340     59341     59342
     59341     59343     59344     59345     59344     59346     59347     59348
     59347     59349     59350     59351     59350     59352     59353     59354
     59353     59355     59356     59357     59356     59358     59359     59360
     59359     59361     59362     59363     59362     59364     59365     59366
     59365     59367     59368     59369     59368     59370     59371     59372
     59371     59373     59374     59375     59374     59376     59377     59378
     59377     59379     59380     59381     59380     59382     59383     59384
     59383     59385     59386     59387     59386     59388     59389     59390
     59389     59391     59392     59393     59392     59394     59395     59396
     59395     59397     59398     59399     59398     59400     59401     59402
     59401     59403     59404     59405     59404     59406     59407     59408
     59407     59409     59410     59411     59410     59412     59413     59414
     59413     59415     59416     59417     59416     59418     59419     59420
     59419     59421     59422     59423     59422     59424     59425     59426
     59425     59427     59428     59429     59428     59430     59431     59432
     59431     59433     59434     59435     59434     59436     59437     59438
     59437     59439     59440     59441     59440     59442     59443     59444
     59443     59445     59446     59447     59446     59448     59449     59450
     59449     59451     59452     59453     59452     59454     59455     59456
     59455     59457     59458     59459     59458     59460     59461     59462
     59461     59463     59464     59465     59464     59466     59467     59468
     59467     59469     59470     59471     59470     59472     59473     59474
     59473     59475     59476     59477     59476     59478     59479     59480
     59479     59481     59482     59483     59482     59484     59485     59486
     59485     59487     59488     59489     59488     59490     59491     59492
     59491     59493     59494     59495     59494     59496     59497     59498
     59497     59499     59500     59501     59500     59502     59503     59504
     59503     59505     59506     59507     59506     59508     59509     59510
     59509     59511     59512     59513     59512     59514     59515     59516
     59515     59517     59518     59519     59518     59520     59521     59522
     59521     59523     59524     59525     59524     59526     59527     59528
     59527     59529     59530     59531     59530     59532     59533     59534
     59533     59535     59536     59537     59536     59538     59539     59540
     59539     59541     59542     59543     59542     59544     59545     59546
     59545     59547     59548     59549     59548     59550     59551     59552
     59551     59553     59554     59555     59554     59556     59557     59558
     59557     59559     59560     59561     59560     59562     59563     59564
     59563     59565     59566     59567     59566     59568     59569     59570
     59569     59571     59572     59573     59572     59574     59575     59576
     59575     59577     59578     59579     59578     59580     59581     59582
     59581     59583     59584     59585     59584     59586     59587     59588
     59587     59589     59590     59591     59590     59592     59593     59594
     59593     59595     59596     59597     59596     59598     59599     59600
     59599     59601     59602     59603     59602     59604     59605     59606
     59605     59607     59608     59609     59608     59610     59611     59612
     59611     59613     59614     59615     59614     59616     59617     59618
     59617     59619     59620     59621     59620     59622     59623     59624
     59623     59625     59626     59627     59626     59628     59629     59630
     59629     59631     59632     59633     59632     59634     59635     59636
     59635     59637     59638     59639     59638     59640     59641     59642
     59641     59643     59644     59645     59644     59646     59647     59648
     59647     59649     59650     59651     59650     59652     59653     59654
     59653     59655     59656     59657     59656     59658     59659     59660
     59659     59661     59662     59663     59662     59664     59665     59666
     59665     59667     59668     59669     59668     59670     59671     59672
     59671     59673     59674     59675     59674     59676     59677     59678
     59677     59679     59680     59681     59680     59682     59683     59684
     59683     59685     59686     59687     59686     59688     59689     59690
     59689     59691     59692     59693     59692     59694     59695     59696
     59695     59697     59698     59699     59698     59700     59701     59702
     59701     59703     59704     59705     59704     59706     59707     59708
     59707     59709     59710     59711     59710     59712     59713     59714
     59713     59715     59716     59717     59716     59718     59719     59720
     59719     59721     59722     59723     59722     59724     59725     59726
     59725     59727     59728     59729     59728     59730     59731     59732
     59731     59733     59734     59735     59734     59736     59737     59738
     59737     59739     59740     59741     59740     59742     59743     59744
     59743     59745     59746     59747     59746     59748     59749     59750
     59749     59751     59752     59753     59752     59754     59755     59756
     59755     59757     59758     59759     59758     59760     59761     59762
     59761     59763     59764     59765     59764     59766     59767     59768
     59767     59769     59770     59771     59770     59772     59773     59774
     59773     59775     59776     59777     59776     59778     59779     59780
     59779     59781     59782     59783     59782     59784     59785     59786
     59785     59787     59788     59789     59788     59790     59791     59792
     59791     59793     59794     59795     59794     59796     59797     59798
     59797     59799     59800     59801     59800     59802     59803     59804
     59803     59805     59806     59807     59806     59808     59809     59810
     59809     59811     59812     59813     59812     59814     59815     59816
     59815     59817     59818     59819     59818     59820     59821     59822
     59821     59823     59824     59825     59824     59826     59827     59828
     59827     59829     59830     59831     59830     59832     59833     59834
     59833     59835     59836     59837     59836     59838     59839     59840
     59839     59841     59842     59843     59842     59844     59845     59846
     59845     59847     59848     59849     59848     59850     59851     59852
     59851     59853     59854     59855     59854     59856     59857     59858
     59857     59859     59860     59861     59860     59862     59863     59864
     59863     59865     59866     59867     59866     59868     59869     59870
     59869     59871     59872     59873     59872     59874     59875     59876
     59875     59877     59878     59879     59878     59880     59881     59882
     59881     59883     59884     59885     59884     59886     59887     59888
     59887     59889     59890     59891     59890     59892     59893     59894
     59893     59895     59896     59897     59896     59898     59899     59900
     59899     59901     59902     59903     59902     59904     59905     59906
     59905     59907     59908     59909     59908     59910     59911     59912
     59911     59913     59914     59915     59914     59916     59917     59918
     59917     59919     59920     59921     59920     59922     59923     59924
     59923     59925     59926     59927     59926     59928     59929     59930
     59929     59931     59932     59933     59932     59934     59935     59936
     59935     59937     59938     59939     59938     59940     59941     59942
     59941     59943     59944     59945     59944     59946     59947     59948
     59947     59949     59950     59951     59950     59952     59953     59954
     59953     59955     59956     59957     59956     59958     59959     59960
     59959     59961     59962     59963     59962     59964     59965     59966
     59965     59967     59968     59969     59968     59970     59971     59972
     59971     59973     59974     59975     59974     59976     59977     59978
     59977     59979     59980     59981     59980     59982     59983     59984
     59983     59985     59986     59987     59986     59988     59989     59990
     59989     59991     59992     59993     59992     59994     59995     59996
     59995     59997     59998     59999     59998     60000     60001     60002
     60001     60003     60004     60005     60004     60006     60007     60008
     60007     60009     60010     60011     60010     60012     60013     60014
     60013     60015     60016     60017     60016     60018     60019     60020
     60019     60021     60022     60023     60022     60024     60025     60026
     60025     60027     60028     60029     60028     60030     60031     60032
     60031     60033     60034     60035     60034     60036     60037     60038
     60037     60039     60040     60041     60040     60042     60043     60044
     60043     60045     60046     60047     60046     60048     60049     60050
     60049     60051     60052     60053     60052     60054     60055     60056
     60055     60057     60058     60059     60058     60060     60061     60062
     60061     60063     60064     60065     60064     60066     60067     60068
     60067     60069     60070     60071     60070     60072     60073     60074
     60073     60075     60076     60077     60076     60078     60079     60080
     60079     60081     60082     60083     60082     60084     60085     60086
     60085     60087     60088     60089     60088     60090     60091     60092
     60091     60093     60094     60095     60094     60096     60097     60098
     60097     60099     60100     60101     60100     60102     60103     60104
     60103     60105     60106     60107     60106     60108     60109     60110
     60109     60111     60112     60113     60112     60114     60115     60116
     60115     60117     60118     60119     60118     60120     60121     60122
     60121     60123     60124     60125     60124     60126     60127     60128
     60127     60129     60130     60131     60130     60132     60133     60134
     60133     60135     60136     60137     60136     60138     60139     60140
     60139     60141     60142     60143     60142     60144     60145     60146
     60145     60147     60148     60149     60148     60150     60151     60152
     60151     60153     60154     60155     60154     60156     60157     60158
     60157     60159     60160     60161     60160     60162     60163     60164
     60163     60165     60166     60167     60166     60168     60169     60170
     60169     60171     60172     60173     60172     60174     60175     60176
     60175     60177     60178     60179     60178     60180     60181     60182
     60181     60183     60184     60185     60184     60186     60187     60188
     60187     60189     60190     60191     60190     60192     60193     60194
     60193     60195     60196     60197     60196     60198     60199     60200
     60199     60201     60202     60203     60202     60204     60205     60206
     60205     60207     60208     60209     60208     60210     60211     60212
     60211     60213     60214     60215     60214     60216     60217     60218
     60217     60219     60220     60221     60220     60222     60223     60224
     60223     60225     60226     60227     60226     60228     60229     60230
     60229     60231     60232     60233     60232     60234     60235     60236
     60235     60237     60238     60239     60238     60240     60241     60242
     60241     60243     60244     60245     60244     60246     60247     60248
     60247     60249     60250     60251     60250     60252     60253     60254
     60253     60255     60256     60257     60256     60258     60259     60260
     60259     60261     60262     60263     60262     60264     60265     60266
     60265     60267     60268     60269     60268     60270     60271     60272
     60271     60273     60274     60275     60274     60276     60277     60278
     60277     60279     60280     60281     60280     60282     60283     60284
     60283     60285     60286     60287     60286     60288     60289     60290
     60289     60291     60292     60293     60292     60294     60295     60296
     60295     60297     60298     60299     60298     60300     60301     60302
     60301     60303     60304     60305     60304     60306     60307     60308
     60307     60309     60310     60311     60310     60312     60313     60314
     60313     60315     60316     60317     60316     60318     60319     60320
     60319     60321     60322     60323     60322     60324     60325     60326
     60325     60327     60328     60329     60328     60330     60331     60332
     60331     60333     60334     60335     60334     60336     60337     60338
     60337     60339     60340     60341     60340     60342     60343     60344
     60343     60345     60346     60347     60346     60348     60349     60350
     60349     60351     60352     60353     60352     60354     60355     60356
     60355     60357     60358     60359     60358     60360     60361     60362
     60361     60363     60364     60365     60364     60366     60367     60368
     60367     60369     60370     60371     60370     60372     60373     60374
     60373     60375     60376     60377     60376     60378     60379     60380
     60379     60381     60382     60383     60382     60384     60385     60386
     60385     60387     60388     60389     60388     60390     60391     60392
     60391     60393     60394     60395     60394     60396     60397     60398
     60397     60399     60400     60401     60400     60402     60403     60404
     60403     60405     60406     60407     60406     60408     60409     60410
     60409     60411     60412     60413     60412     60414     60415     60416
     60415     60417     60418     60419     60418     60420     60421     60422
     60421     60423     60424     60425     60424     60426     60427     60428
     60427     60429     60430     60431     60430     60432     60433     60434
     60433     60435     60436     60437     60436     60438     60439     60440
     60439     60441     60442     60443     60442     60444     60445     60446
     60445     60447     60448     60449     60448     60450     60451     60452
     60451     60453     60454     60455     60454     60456     60457     60458
     60457     60459     60460     60461     60460     60462     60463     60464
     60463     60465     60466     60467     60466     60468     60469     60470
     60469     60471     60472     60473     60472     60474     60475     60476
     60475     60477     60478     60479     60478     60480     60481     60482
     60481     60483     60484     60485     60484     60486     60487     60488
     60487     60489     60490     60491     60490     60492     60493     60494
     60493     60495     60496     60497     60496     60498     60499     60500
     60499     60501     60502     60503     60502     60504     60505     60506
     60505     60507     60508     60509     60508     60510     60511     60512
     60511     60513     60514     60515     60514     60516     60517     60518
     60517     60519     60520     60521     60520     60522     60523     60524
     60523     60525     60526     60527     60526     60528     60529     60530
     60529     60531     60532     60533     60532     60534     60535     60536
     60535     60537     60538     60539     60538     60540     60541     60542
     60541     60543     60544     60545     60544     60546     60547     60548
     60547     60549     60550     60551     60550     60552     60553     60554
     60553     60555     60556     60557     60556     60558     60559     60560
     60559     60561     60562     60563     60562     60564     60565     60566
     60565     60567     60568     60569     60568     60570     60571     60572
     60571     60573     60574     60575     60574     60576     60577     60578
     60577     60579     60580     60581     60580     60582     60583     60584
     60583     60585     60586     60587     60586     60588     60589     60590
     60589     60591     60592     60593     60592     60594     60595     60596
     60595     60597     60598     60599     60598     60600     60601     60602
     60601     60603     60604     60605     60604     60606     60607     60608
     60607     60609     60610     60611     60610     60612     60613     60614
     60613     60615     60616     60617     60616     60618     60619     60620
     60619     60621     60622     60623     60622     60624     60625     60626
     60625     60627     60628     60629     60628     60630     60631     60632
     60631     60633     60634     60635     60634     60636     60637     60638
     60637     60639     60640     60641     60640     60642     60643     60644
     60643     60645     60646     60647     60646     60648     60649     60650
     60649     60651     60652     60653     60652     60654     60655     60656
     60655     60657     60658     60659     60658     60660     60661     60662
     60661     60663     60664     60665     60664     60666     60667     60668
     60667     60669     60670     60671     60670     60672     60673     60674
     60673     60675     60676     60677     60676     60678     60679     60680
     60679     60681     60682     60683     60682     60684     60685     60686
     60685     60687     60688     60689     60688     60690     60691     60692
     60691     60693     60694     60695     60694     60696     60697     60698
     60697     60699     60700     60701     60700     60702     60703     60704
     60703     60705     60706     60707     60706     60708     60709     60710
     60709     60711     60712     60713     60712     60714     60715     60716
     60715     60717     60718     60719     60718     60720     60721     60722
     60721     60723     60724     60725     60724     60726     60727     60728
     60727     60729     60730     60731     60730     60732     60733     60734
     60733     60735     60736     60737     60736     60738     60739     60740
     60739     60741     60742     60743     60742     60744     60745     60746
     60745     60747     60748     60749     60748     60750     60751     60752
     60751     60753     60754     60755     60754     60756     60757     60758
     60757     60759     60760     60761     60760     60762     60763     60764
     60763     60765     60766     60767     60766     60768     60769     60770
     60769     60771     60772     60773     60772     60774     60775     60776
     60775     60777     60778     60779     60778     60780     60781     60782
     60781     60783     60784     60785     60784     60786     60787     60788
     60787     60789     60790     60791     60790     60792     60793     60794
     60793     60795     60796     60797     60796     60798     60799     60800
     60799     60801     60802     60803     60802     60804     60805     60806
     60805     60807     60808     60809     60808     60810     60811     60812
     60811     60813     60814     60815     60814     60816     60817     60818
     60817     60819     60820     60821     60820     60822     60823     60824
     60823     60825     60826     60827     60826     60828     60829     60830
     60829     60831     60832     60833     60832     60834     60835     60836
     60835     60837     60838     60839     60838     60840     60841     60842
     60841     60843     60844     60845     60844     60846     60847     60848
     60847     60849     60850     60851     60850     60852     60853     60854
     60853     60855     60856     60857     60856     60858     60859     60860
     60859     60861     60862     60863     60862     60864     60865     60866
     60865     60867     60868     60869     60868     60870     60871     60872
     60871     60873     60874     60875     60874     60876     60877     60878
     60877     60879     60880     60881     60880     60882     60883     60884
     60883     60885     60886     60887     60886     60888     60889     60890
     60889     60891     60892     60893     60892     60894     60895     60896
     60895     60897     60898     60899     60898     60900     60901     60902
     60901     60903     60904     60905     60904     60906     60907     60908
     60907     60909     60910     60911     60910     60912     60913     60914
     60913     60915     60916     60917     60916     60918     60919     60920
     60919     60921     60922     60923     60922     60924     60925     60926
     60925     60927     60928     60929     60928     60930     60931     60932
     60931     60933     60934     60935     60934     60936     60937     60938
     60937     60939     60940     60941     60940     60942     60943     60944
     60943     60945     60946     60947     60946     60948     60949     60950
     60949     60951     60952     60953     60952     60954     60955     60956
     60955     60957     60958     60959     60958     60960     60961     60962
     60961     60963     60964     60965     60964     60966     60967     60968
     60967     60969     60970     60971     60970     60972     60973     60974
     60973     60975     60976     60977     60976     60978     60979     60980
     60979     60981     60982     60983     60982     60984     60985     60986
     60985     60987     60988     60989     60988     60990     60991     60992
     60991     60993     60994     60995     60994     60996     60997     60998
     60997     60999     61000     61001     61000     61002     61003     61004
     61003     61005     61006     61007     61006     61008     61009     61010
     61009     61011     61012     61013     61012     61014     61015     61016
     61015     61017     61018     61019     61018     61020     61021     61022
     61021     61023     61024     61025     61024     61026     61027     61028
     61027     61029     61030     61031     61030     61032     61033     61034
     61033     61035     61036     61037     61036     61038     61039     61040
     61039     61041     61042     61043     61042     61044     61045     61046
     61045     61047     61048     61049     61048     61050     61051     61052
     61051     61053     61054     61055     61054     61056     61057     61058
     61057     61059     61060     61061     61060     61062     61063     61064
     61063     61065     61066     61067     61066     61068     61069     61070
     61069     61071     61072     61073     61072     61074     61075     61076
     61075     61077     61078     61079     61078     61080     61081     61082
     61081     61083     61084     61085     61084     61086     61087     61088
     61087     61089     61090     61091     61090     61092     61093     61094
     61093     61095     61096     61097     61096     61098     61099     61100
     61099     61101     61102     61103     61102     61104     61105     61106
     61105     61107     61108     61109     61108     61110     61111     61112
     61111     61113     61114     61115     61114     61116     61117     61118
     61117     61119     61120     61121     61120     61122     61123     61124
     61123     61125     61126     61127     61126     61128     61129     61130
     61129     61131     61132     61133     61132     61134     61135     61136
     61135     61137     61138     61139     61138     61140     61141     61142
     61141     61143     61144     61145     61144     61146     61147     61148
     61147     61149     61150     61151     61150     61152     61153     61154
     61153     61155     61156     61157     61156     61158     61159     61160
     61159     61161     61162     61163     61162     61164     61165     61166
     61165     61167     61168     61169     61168     61170     61171     61172
     61171     61173     61174     61175     61174     61176     61177     61178
     61177     61179     61180     61181     61180     61182     61183     61184
     61183     61185     61186     61187     61186     61188     61189     61190
     61189     61191     61192     61193     61192     61194     61195     61196
     61195     61197     61198     61199     61198     61200     61201     61202
     61201     61203     61204     61205     61204     61206     61207     61208
     61207     61209     61210     61211     61210     61212     61213     61214
     61213     61215     61216     61217     61216     61218     61219     61220
     61219     61221     61222     61223     61222     61224     61225     61226
     61225     61227     61228     61229     61228     61230     61231     61232
     61231     61233     61234     61235     61234     61236     61237     61238
     61237     61239     61240     61241     61240     61242     61243     61244
     61243     61245     61246     61247     61246     61248     61249     61250
     61249     61251     61252     61253     61252     61254     61255     61256
     61255     61257     61258     61259     61258     61260     61261     61262
     61261     61263     61264     61265     61264     61266     61267     61268
     61267     61269     61270     61271     61270     61272     61273     61274
     61273     61275     61276     61277     61276     61278     61279     61280
     61279     61281     61282     61283     61282     61284     61285     61286
     61285     61287     61288     61289     61288     61290     61291     61292
     61291     61293     61294     61295     61294     61296     61297     61298
     61297     61299     61300     61301     61300     61302     61303     61304
     61303     61305     61306     61307     61306     61308     61309     61310
     61309     61311     61312     61313     61312     61314     61315     61316
     61315     61317     61318     61319     61318     61320     61321     61322
     61321     61323     61324     61325     61324     61326     61327     61328
     61327     61329     61330     61331     61330     61332     61333     61334
     61333     61335     61336     61337     61336     61338     61339     61340
     61339     61341     61342     61343     61342     61344     61345     61346
     61345     61347     61348     61349     61348     61350     61351     61352
     61351     61353     61354     61355     61354     61356     61357     61358
     61357     61359     61360     61361     61360     61362     61363     61364
     61363     61365     61366     61367     61366     61368     61369     61370
     61369     61371     61372     61373     61372     61374     61375     61376
     61375     61377     61378     61379     61378     61380     61381     61382
     61381     61383     61384     61385     61384     61386     61387     61388
     61387     61389     61390     61391     61390     61392     61393     61394
     61393     61395     61396     61397     61396     61398     61399     61400
     61399     61401     61402     61403     61402     61404     61405     61406
     61405     61407     61408     61409     61408     61410     61411     61412
     61411     61413     61414     61415     61414     61416     61417     61418
     61417     61419     61420     61421     61420     61422     61423     61424
     61423     61425     61426     61427     61426     61428     61429     61430
     61429     61431     61432     61433     61432     61434     61435     61436
     61435     61437     61438     61439     61438     61440     61441     61442
     61441     61443     61444     61445     61444     61446     61447     61448
     61447     61449     61450     61451     61450     61452     61453     61454
     61453     61455     61456     61457     61456     61458     61459     61460
     61459     61461     61462     61463     61462     61464     61465     61466
     61465     61467     61468     61469     61468     61470     61471     61472
     61471     61473     61474     61475     61474     61476     61477     61478
     61477     61479     61480     61481     61480     61482     61483     61484
     61483     61485     61486     61487     61486     61488     61489     61490
     61489     61491     61492     61493     61492     61494     61495     61496
     61495     61497     61498     61499     61498     61500     61501     61502
     61501     61503     61504     61505     61504     61506     61507     61508
     61507     61509     61510     61511     61510     61512     61513     61514
     61513     61515     61516     61517     61516     61518     61519     61520
     61519     61521     61522     61523     61522     61524     61525     61526
     61525     61527     61528     61529     61528     61530     61531     61532
     61531     61533     61534     61535     61534     61536     61537     61538
     61537     61539     61540     61541     61540     61542     61543     61544
     61543     61545     61546     61547     61546     61548     61549     61550
     61549     61551     61552     61553     61552     61554     61555     61556
     61555     61557     61558     61559     61558     61560     61561     61562
     61561     61563     61564     61565     61564     61566     61567     61568
     61567     61569     61570     61571     61570     61572     61573     61574
     61573     61575     61576     61577     61576     61578     61579     61580
     61579     61581     61582     61583     61582     61584     61585     61586
     61585     61587     61588     61589     61588     61590     61591     61592
     61591     61593     61594     61595     61594     61596     61597     61598
     61597     61599     61600     61601     61600     61602     61603     61604
     61603     61605     61606     61607     61606     61608     61609     61610
     61609     61611     61612     61613     61612     61614     61615     61616
     61615     61617     61618     61619     61618     61620     61621     61622
     61621     61623     61624     61625     61624     61626     61627     61628
     61627     61629     61630     61631     61630     61632     61633     61634
     61633     61635     61636     61637     61636     61638     61639     61640
     61639     61641     61642     61643     61642     61644     61645     61646
     61645     61647     61648     61649     61648     61650     61651     61652
     61651     61653     61654     61655     61654     61656     61657     61658
     61657     61659     61660     61661     61660     61662     61663     61664
     61663     61665     61666     61667     61666     61668     61669     61670
     61669     61671     61672     61673     61672     61674     61675     61676
     61675     61677     61678     61679     61678     61680     61681     61682
     61681     61683     61684     61685     61684     61686     61687     61688
     61687     61689     61690     61691     61690     61692     61693     61694
     61693     61695     61696     61697     61696     61698     61699     61700
     61699     61701     61702     61703     61702     61704     61705     61706
     61705     61707     61708     61709     61708     61710     61711     61712
     61711     61713     61714     61715     61714     61716     61717     61718
     61717     61719     61720     61721     61720     61722     61723     61724
     61723     61725     61726     61727     61726     61728     61729     61730
     61729     61731     61732     61733     61732     61734     61735     61736
     61735     61737     61738     61739     61738     61740     61741     61742
     61741     61743     61744     61745     61744     61746     61747     61748
     61747     61749     61750     61751     61750     61752     61753     61754
     61753     61755     61756     61757     61756     61758     61759     61760
     61759     61761     61762     61763     61762     61764     61765     61766
     61765     61767     61768     61769     61768     61770     61771     61772
     61771     61773     61774     61775     61774     61776     61777     61778
     61777     61779     61780     61781     61780     61782     61783     61784
     61783     61785     61786     61787     61786     61788     61789     61790
     61789     61791     61792     61793     61792     61794     61795     61796
     61795     61797     61798     61799     61798     61800     61801     61802
     61801     61803     61804     61805     61804     61806     61807     61808
     61807     61809     61810     61811     61810     61812     61813     61814
     61813     61815     61816     61817     61816     61818     61819     61820
     61819     61821     61822     61823     61822     61824     61825     61826
     61825     61827     61828     61829     61828     61830     61831     61832
     61831     61833     61834     61835     61834     61836     61837     61838
     61837     61839     61840     61841     61840     61842     61843     61844
     61843     61845     61846     61847     61846     61848     61849     61850
     61849     61851     61852     61853     61852     61854     61855     61856
     61855     61857     61858     61859     61858     61860     61861     61862
     61861     61863     61864     61865     61864     61866     61867     61868
     61867     61869     61870     61871     61870     61872     61873     61874
     61873     61875     61876     61877     61876     61878     61879     61880
     61879     61881     61882     61883     61882     61884     61885     61886
     61885     61887     61888     61889     61888     61890     61891     61892
     61891     61893     61894     61895     61894     61896     61897     61898
     61897     61899     61900     61901     61900     61902     61903     61904
     61903     61905     61906     61907     61906     61908     61909     61910
     61909     61911     61912     61913     61912     61914     61915     61916
     61915     61917     61918     61919     61918     61920     61921     61922
     61921     61923     61924     61925     61924     61926     61927     61928
     61927     61929     61930     61931     61930     61932     61933     61934
     61933     61935     61936     61937     61936     61938     61939     61940
     61939     61941     61942     61943     61942     61944     61945     61946
     61945     61947     61948     61949     61948     61950     61951     61952
     61951     61953     61954     61955     61954     61956     61957     61958
     61957     61959     61960     61961     61960     61962     61963     61964
     61963     61965     61966     61967     61966     61968     61969     61970
     61969     61971     61972     61973     61972     61974     61975     61976
     61975     61977     61978     61979     61978     61980     61981     61982
     61981     61983     61984     61985     61984     61986     61987     61988
     61987     61989     61990     61991     61990     61992     61993     61994
     61993     61995     61996     61997     61996     61998     61999     62000
     61999     62001     62002     62003     62002     62004     62005     62006
     62005     62007     62008     62009     62008     62010     62011     62012
     62011     62013     62014     62015     62014     62016     62017     62018
     62017     62019     62020     62021     62020     62022     62023     62024
     62023     62025     62026     62027     62026     62028     62029     62030
     62029     62031     62032     62033     62032     62034     62035     62036
     62035     62037     62038     62039     62038     62040     62041     62042
     62041     62043     62044     62045     62044     62046     62047     62048
     62047     62049     62050     62051     62050     62052     62053     62054
     62053     62055     62056     62057     62056     62058     62059     62060
     62059     62061     62062     62063     62062     62064     62065     62066
     62065     62067     62068     62069     62068     62070     62071     62072
     62071     62073     62074     62075     62074     62076     62077     62078
     62077     62079     62080     62081     62080     62082     62083     62084
     62083     62085     62086     62087     62086     62088     62089     62090
     62089     62091     62092     62093     62092     62094     62095     62096
     62095     62097     62098     62099     62098     62100     62101     62102
     62101     62103     62104     62105     62104     62106     62107     62108
     62107     62109     62110     62111     62110     62112     62113     62114
     62113     62115     62116     62117     62116     62118     62119     62120
     62119     62121     62122     62123     62122     62124     62125     62126
     62125     62127     62128     62129     62128     62130     62131     62132
     62131     62133     62134     62135     62134     62136     62137     62138
     62137     62139     62140     62141     62140     62142     62143     62144
     62143     62145     62146     62147     62146     62148     62149     62150
     62149     62151     62152     62153     62152     62154     62155     62156
     62155     62157     62158     62159     62158     62160     62161     62162
     62161     62163     62164     62165     62164     62166     62167     62168
     62167     62169     62170     62171     62170     62172     62173     62174
     62173     62175     62176     62177     62176     62178     62179     62180
     62179     62181     62182     62183     62182     62184     62185     62186
     62185     62187     62188     62189     62188     62190     62191     62192
     62191     62193     62194     62195     62194     62196     62197     62198
     62197     62199     62200     62201     62200     62202     62203     62204
     62203     62205     62206     62207     62206     62208     62209     62210
     62209     62211     62212     62213     62212     62214     62215     62216
     62215     62217     62218     62219     62218     62220     62221     62222
     62221     62223     62224     62225     62224     62226     62227     62228
     62227     62229     62230     62231     62230     62232     62233     62234
     62233     62235     62236     62237     62236     62238     62239     62240
     62239     62241     62242     62243     62242     62244     62245     62246
     62245     62247     62248     62249     62248     62250     62251     62252
     62251     62253     62254     62255     62254     62256     62257     62258
     62257     62259     62260     62261     62260     62262     62263     62264
     62263     62265     62266     62267     62266     62268     62269     62270
     62269     62271     62272     62273     62272     62274     62275     62276
     62275     62277     62278     62279     62278     62280     62281     62282
     62281     62283     62284     62285     62284     62286     62287     62288
     62287     62289     62290     62291     62290     62292     62293     62294
     62293     62295     62296     62297     62296     62298     62299     62300
     62299     62301     62302     62303     62302     62304     62305     62306
     62305     62307     62308     62309     62308     62310     62311     62312
     62311     62313     62314     62315     62314     62316     62317     62318
     62317     62319     62320     62321     62320     62322     62323     62324
     62323     62325     62326     62327     62326     62328     62329     62330
     62329     62331     62332     62333     62332     62334     62335     62336
     62335     62337     62338     62339     62338     62340     62341     62342
     62341     62343     62344     62345     62344     62346     62347     62348
     62347     62349     62350     62351     62350     62352     62353     62354
     62353     62355     62356     62357     62356     62358     62359     62360
     62359     62361     62362     62363     62362     62364     62365     62366
     62365     62367     62368     62369     62368     62370     62371     62372
     62371     62373     62374     62375     62374     62376     62377     62378
     62377     62379     62380     62381     62380     62382     62383     62384
     62383     62385     62386     62387     62386     62388     62389     62390
     62389     62391     62392     62393     62392     62394     62395     62396
     62395     62397     62398     62399     62398     62400     62401     62402
     62401     62403     62404     62405     62404     62406     62407     62408
     62407     62409     62410     62411     62410     62412     62413     62414
     62413     62415     62416     62417     62416     62418     62419     62420
     62419     62421     62422     62423     62422     62424     62425     62426
     62425     62427     62428     62429     62428     62430     62431     62432
     62431     62433     62434     62435     62434     62436     62437     62438
     62437     62439     62440     62441     62440     62442     62443     62444
     62443     62445     62446     62447     62446     62448     62449     62450
     62449     62451     62452     62453     62452     62454     62455     62456
     62455     62457     62458     62459     62458     62460     62461     62462
     62461     62463     62464     62465     62464     62466     62467     62468
     62467     62469     62470     62471     62470     62472     62473     62474
     62473     62475     62476     62477     62476     62478     62479     62480
     62479     62481     62482     62483     62482     62484     62485     62486
     62485     62487     62488     62489     62488     62490     62491     62492
     62491     62493     62494     62495     62494     62496     62497     62498
     62497     62499     62500     62501     62500     62502     62503     62504
     62503     62505     62506     62507     62506     62508     62509     62510
     62509     62511     62512     62513     62512     62514     62515     62516
     62515     62517     62518     62519     62518     62520     62521     62522
     62521     62523     62524     62525     62524     62526     62527     62528
     62527     62529     62530     62531     62530     62532     62533     62534
     62533     62535     62536     62537     62536     62538     62539     62540
     62539     62541     62542     62543     62542     62544     62545     62546
     62545     62547     62548     62549     62548     62550     62551     62552
     62551     62553     62554     62555     62554     62556     62557     62558
     62557     62559     62560     62561     62560     62562     62563     62564
     62563     62565     62566     62567     62566     62568     62569     62570
     62569     62571     62572     62573     62572     62574     62575     62576
     62575     62577     62578     62579     62578     62580     62581     62582
     62581     62583     62584     62585     62584     62586     62587     62588
     62587     62589     62590     62591     62590     62592     62593     62594
     62593     62595     62596     62597     62596     62598     62599     62600
     62599     62601     62602     62603     62602     62604     62605     62606
     62605     62607     62608     62609     62608     62610     62611     62612
     62611     62613     62614     62615     62614     62616     62617     62618
     62617     62619     62620     62621     62620     62622     62623     62624
     62623     62625     62626     62627     62626     62628     62629     62630
     62629     62631     62632     62633     62632     62634     62635     62636
     62635     62637     62638     62639     62638     62640     62641     62642
     62641     62643     62644     62645     62644     62646     62647     62648
     62647     62649     62650     62651     62650     62652     62653     62654
     62653     62655     62656     62657     62656     62658     62659     62660
     62659     62661     62662     62663     62662     62664     62665     62666
     62665     62667     62668     62669     62668     62670     62671     62672
     62671     62673     62674     62675     62674     62676     62677     62678
     62677     62679     62680     62681     62680     62682     62683     62684
     62683     62685     62686     62687     62686     62688     62689     62690
     62689     62691     62692     62693     62692     62694     62695     62696
     62695     62697     62698     62699     62698     62700     62701     62702
     62701     62703     62704     62705     62704     62706     62707     62708
     62707     62709     62710     62711     62710     62712     62713     62714
     62713     62715     62716     62717     62716     62718     62719     62720
     62719     62721     62722     62723     62722     62724     62725     62726
     62725     62727     62728     62729     62728     62730     62731     62732
     62731     62733     62734     62735     62734     62736     62737     62738
     62737     62739     62740     62741     62740     62742     62743     62744
     62743     62745     62746     62747     62746     62748     62749     62750
     62749     62751     62752     62753     62752     62754     62755     62756
     62755     62757     62758     62759     62758     62760     62761     62762
     62761     62763     62764     62765     62764     62766     62767     62768
     62767     62769     62770     62771     62770     62772     62773     62774
     62773     62775     62776     62777     62776     62778     62779     62780
     62779     62781     62782     62783     62782     62784     62785     62786
     62785     62787     62788     62789     62788     62790     62791     62792
     62791     62793     62794     62795     62794     62796     62797     62798
     62797     62799     62800     62801     62800     62802     62803     62804
     62803     62805     62806     62807     62806     62808     62809     62810
     62809     62811     62812     62813     62812     62814     62815     62816
     62815     62817     62818     62819     62818     62820     62821     62822
     62821     62823     62824     62825     62824     62826     62827     62828
     62827     62829     62830     62831     62830     62832     62833     62834
     62833     62835     62836     62837     62836     62838     62839     62840
     62839     62841     62842     62843     62842     62844     62845     62846
     62845     62847     62848     62849     62848     62850     62851     62852
     62851     62853     62854     62855     62854     62856     62857     62858
     62857     62859     62860     62861     62860     62862     62863     62864
     62863     62865     62866     62867     62866     62868     62869     62870
     62869     62871     62872     62873     62872     62874     62875     62876
     62875     62877     62878     62879     62878     62880     62881     62882
     62881     62883     62884     62885     62884     62886     62887     62888
     62887     62889     62890     62891     62890     62892     62893     62894
     62893     62895     62896     62897     62896     62898     62899     62900
     62899     62901     62902     62903     62902     62904     62905     62906
     62905     62907     62908     62909     62908     62910     62911     62912
     62911     62913     62914     62915     62914     62916     62917     62918
     62917     62919     62920     62921     62920     62922     62923     62924
     62923     62925     62926     62927     62926     62928     62929     62930
     62929     62931     62932     62933     62932     62934     62935     62936
     62935     62937     62938     62939     62938     62940     62941     62942
     62941     62943     62944     62945     62944     62946     62947     62948
     62947     62949     62950     62951     62950     62952     62953     62954
     62953     62955     62956     62957     62956     62958     62959     62960
     62959     62961     62962     62963     62962     62964     62965     62966
     62965     62967     62968     62969     62968     62970     62971     62972
     62971     62973     62974     62975     62974     62976     62977     62978
     62977     62979     62980     62981     62980     62982     62983     62984
     62983     62985     62986     62987     62986     62988     62989     62990
     62989     62991     62992     62993     62992     62994     62995     62996
     62995     62997     62998     62999     62998     63000     63001     63002
     63001     63003     63004     63005     63004     63006     63007     63008
     63007     63009     63010     63011     63010     63012     63013     63014
     63013     63015     63016     63017     63016     63018     63019     63020
     63019     63021     63022     63023     63022     63024     63025     63026
     63025     63027     63028     63029     63028     63030     63031     63032
     63031     63033     63034     63035     63034     63036     63037     63038
     63037     63039     63040     63041     63040     63042     63043     63044
     63043     63045     63046     63047     63046     63048     63049     63050
     63049     63051     63052     63053     63052     63054     63055     63056
     63055     63057     63058     63059     63058     63060     63061     63062
     63061     63063     63064     63065     63064     63066     63067     63068
     63067     63069     63070     63071     63070     63072     63073     63074
     63073     63075     63076     63077     63076     63078     63079     63080
     63079     63081     63082     63083     63082     63084     63085     63086
     63085     63087     63088     63089     63088     63090     63091     63092
     63091     63093     63094     63095     63094     63096     63097     63098
     63097     63099     63100     63101     63100     63102     63103     63104
     63103     63105     63106     63107     63106     63108     63109     63110
     63109     63111     63112     63113     63112     63114     63115     63116
     63115     63117     63118     63119     63118     63120     63121     63122
     63121     63123     63124     63125     63124     63126     63127     63128
     63127     63129     63130     63131     63130     63132     63133     63134
     63133     63135     63136     63137     63136     63138     63139     63140
     63139     63141     63142     63143     63142     63144     63145     63146
     63145     63147     63148     63149     63148     63150     63151     63152
     63151     63153     63154     63155     63154     63156     63157     63158
     63157     63159     63160     63161     63160     63162     63163     63164
     63163     63165     63166     63167     63166     63168     63169     63170
     63169     63171     63172     63173     63172     63174     63175     63176
     63175     63177     63178     63179     63178     63180     63181     63182
     63181     63183     63184     63185     63184     63186     63187     63188
     63187     63189     63190     63191     63190     63192     63193     63194
     63193     63195     63196     63197     63196     63198     63199     63200
     63199     63201     63202     63203     63202     63204     63205     63206
     63205     63207     63208     63209     63208     63210     63211     63212
     63211     63213     63214     63215     63214     63216     63217     63218
     63217     63219     63220     63221     63220     63222     63223     63224
     63223     63225     63226     63227     63226     63228     63229     63230
     63229     63231     63232     63233     63232     63234     63235     63236
     63235     63237     63238     63239     63238     63240     63241     63242
     63241     63243     63244     63245     63244     63246     63247     63248
     63247     63249     63250     63251     63250     63252     63253     63254
     63253     63255     63256     63257     63256     63258     63259     63260
     63259     63261     63262     63263     63262     63264     63265     63266
     63265     63267     63268     63269     63268     63270     63271     63272
     63271     63273     63274     63275     63274     63276     63277     63278
     63277     63279     63280     63281     63280     63282     63283     63284
     63283     63285     63286     63287     63286     63288     63289     63290
     63289     63291     63292     63293     63292     63294     63295     63296
     63295     63297     63298     63299     63298     63300     63301     63302
     63301     63303     63304     63305     63304     63306     63307     63308
     63307     63309     63310     63311     63310     63312     63313     63314
     63313     63315     63316     63317     63316     63318     63319     63320
     63319     63321     63322     63323     63322     63324     63325     63326
     63325     63327     63328     63329     63328     63330     63331     63332
     63331     63333     63334     63335     63334     63336     63337     63338
     63337     63339     63340     63341     63340     63342     63343     63344
     63343     63345     63346     63347     63346     63348     63349     63350
     63349     63351     63352     63353     63352     63354     63355     63356
     63355     63357     63358     63359     63358     63360     63361     63362
     63361     63363     63364     63365     63364     63366     63367     63368
     63367     63369     63370     63371     63370     63372     63373     63374
     63373     63375     63376     63377     63376     63378     63379     63380
     63379     63381     63382     63383     63382     63384     63385     63386
     63385     63387     63388     63389     63388     63390     63391     63392
     63391     63393     63394     63395     63394     63396     63397     63398
     63397     63399     63400     63401     63400     63402     63403     63404
     63403     63405     63406     63407     63406     63408     63409     63410
     63409     63411     63412     63413     63412     63414     63415     63416
     63415     63417     63418     63419     63418     63420     63421     63422
     63421     63423     63424     63425     63424     63426     63427     63428
     63427     63429     63430     63431     63430     63432     63433     63434
     63433     63435     63436     63437     63436     63438     63439     63440
     63439     63441     63442     63443     63442     63444     63445     63446
     63445     63447     63448     63449     63448     63450     63451     63452
     63451     63453     63454     63455     63454     63456     63457     63458
     63457     63459     63460     63461     63460     63462     63463     63464
     63463     63465     63466     63467     63466     63468     63469     63470
     63469     63471     63472     63473     63472     63474     63475     63476
     63475     63477     63478     63479     63478     63480     63481     63482
     63481     63483     63484     63485     63484     63486     63487     63488
     63487     63489     63490     63491     63490     63492     63493     63494
     63493     63495     63496     63497     63496     63498     63499     63500
     63499     63501     63502     63503     63502     63504     63505     63506
     63505     63507     63508     63509     63508     63510     63511     63512
     63511     63513     63514     63515     63514     63516     63517     63518
     63517     63519     63520     63521     63520     63522     63523     63524
     63523     63525     63526     63527     63526     63528     63529     63530
     63529     63531     63532     63533     63532     63534     63535     63536
     63535     63537     63538     63539     63538     63540     63541     63542
     63541     63543     63544     63545     63544     63546     63547     63548
     63547     63549     63550     63551     63550     63552     63553     63554
     63553     63555     63556     63557     63556     63558     63559     63560
     63559     63561     63562     63563     63562     63564     63565     63566
     63565     63567     63568     63569     63568     63570     63571     63572
     63571     63573     63574     63575     63574     63576     63577     63578
     63577     63579     63580     63581     63580     63582     63583     63584
     63583     63585     63586     63587     63586     63588     63589     63590
     63589     63591     63592     63593     63592     63594     63595     63596
     63595     63597     63598     63599     63598     63600     63601     63602
     63601     63603     63604     63605     63604     63606     63607     63608
     63607     63609     63610     63611     63610     63612     63613     63614
     63613     63615     63616     63617     63616     63618     63619     63620
     63619     63621     63622     63623     63622     63624     63625     63626
     63625     63627     63628     63629     63628     63630     63631     63632
     63631     63633     63634     63635     63634     63636     63637     63638
     63637     63639     63640     63641     63640     63642     63643     63644
     63643     63645     63646     63647     63646     63648     63649     63650
     63649     63651     63652     63653     63652     63654     63655     63656
     63655     63657     63658     63659     63658     63660     63661     63662
     63661     63663     63664     63665     63664     63666     63667     63668
     63667     63669     63670     63671     63670     63672     63673     63674
     63673     63675     63676     63677     63676     63678     63679     63680
     63679     63681     63682     63683     63682     63684     63685     63686
     63685     63687     63688     63689     63688     63690     63691     63692
     63691     63693     63694     63695     63694     63696     63697     63698
     63697     63699     63700     63701     63700     63702     63703     63704
     63703     63705     63706     63707     63706     63708     63709     63710
     63709     63711     63712     63713     63712     63714     63715     63716
     63715     63717     63718     63719     63718     63720     63721     63722
     63721     63723     63724     63725     63724     63726     63727     63728
     63727     63729     63730     63731     63730     63732     63733     63734
     63733     63735     63736     63737     63736     63738     63739     63740
     63739     63741     63742     63743     63742     63744     63745     63746
     63745     63747     63748     63749     63748     63750     63751     63752
     63751     63753     63754     63755     63754     63756     63757     63758
     63757     63759     63760     63761     63760     63762     63763     63764
     63763     63765     63766     63767     63766     63768     63769     63770
     63769     63771     63772     63773     63772     63774     63775     63776
     63775     63777     63778     63779     63778     63780     63781     63782
     63781     63783     63784     63785     63784     63786     63787     63788
     63787     63789     63790     63791     63790     63792     63793     63794
     63793     63795     63796     63797     63796     63798     63799     63800
     63799     63801     63802     63803     63802     63804     63805     63806
     63805     63807     63808     63809     63808     63810     63811     63812
     63811     63813     63814     63815     63814     63816     63817     63818
     63817     63819     63820     63821     63820     63822     63823     63824
     63823     63825     63826     63827     63826     63828     63829     63830
     63829     63831     63832     63833     63832     63834     63835     63836
     63835     63837     63838     63839     63838     63840     63841     63842
     63841     63843     63844     63845     63844     63846     63847     63848
     63847     63849     63850     63851     63850     63852     63853     63854
     63853     63855     63856     63857     63856     63858     63859     63860
     63859     63861     63862     63863     63862     63864     63865     63866
     63865     63867     63868     63869     63868     63870     63871     63872
     63871     63873     63874     63875     63874     63876     63877     63878
     63877     63879     63880     63881     63880     63882     63883     63884
     63883     63885     63886     63887     63886     63888     63889     63890
     63889     63891     63892     63893     63892     63894     63895     63896
     63895     63897     63898     63899     63898     63900     63901     63902
     63901     63903     63904     63905     63904     63906     63907     63908
     63907     63909     63910     63911     63910     63912     63913     63914
     63913     63915     63916     63917     63916     63918     63919     63920
     63919     63921     63922     63923     63922     63924     63925     63926
     63925     63927     63928     63929     63928     63930     63931     63932
     63931     63933     63934     63935     63934     63936     63937     63938
     63937     63939     63940     63941     63940     63942     63943     63944
     63943     63945     63946     63947     63946     63948     63949     63950
     63949     63951     63952     63953     63952     63954     63955     63956
     63955     63957     63958     63959     63958     63960     63961     63962
     63961     63963     63964     63965     63964     63966     63967     63968
     63967     63969     63970     63971     63970     63972     63973     63974
     63973     63975     63976     63977     63976     63978     63979     63980
     63979     63981     63982     63983     63982     63984     63985     63986
     63985     63987     63988     63989     63988     63990     63991     63992
     63991     63993     63994     63995     63994     63996     63997     63998
     63997     63999     64000     64001     64000     64002     64003     64004
     64003     64005     64006     64007     64006     64008     64009     64010
     64009     64011     64012     64013     64012     64014     64015     64016
     64015     64017     64018     64019     64018     64020     64021     64022
     64021     64023     64024     64025     64024     64026     64027     64028
     64027     64029     64030     64031     64030     64032     64033     64034
     64033     64035     64036     64037     64036     64038     64039     64040
     64039     64041     64042     64043     64042     64044     64045     64046
     64045     64047     64048     64049     64048     64050     64051     64052
     64051     64053     64054     64055     64054     64056     64057     64058
     64057     64059     64060     64061     64060     64062     64063     64064
     64063     64065     64066     64067     64066     64068     64069     64070
     64069     64071     64072     64073     64072     64074     64075     64076
     64075     64077     64078     64079     64078     64080     64081     64082
     64081     64083     64084     64085     64084     64086     64087     64088
     64087     64089     64090     64091     64090     64092     64093     64094
     64093     64095     64096     64097     64096     64098     64099     64100
     64099     64101     64102     64103     64102     64104     64105     64106
     64105     64107     64108     64109     64108     64110     64111     64112
     64111     64113     64114     64115     64114     64116     64117     64118
     64117     64119     64120     64121     64120     64122     64123     64124
     64123     64125     64126     64127     64126     64128     64129     64130
     64129     64131     64132     64133     64132     64134     64135     64136
     64135     64137     64138     64139     64138     64140     64141     64142
     64141     64143     64144     64145     64144     64146     64147     64148
     64147     64149     64150     64151     64150     64152     64153     64154
     64153     64155     64156     64157     64156     64158     64159     64160
     64159     64161     64162     64163     64162     64164     64165     64166
     64165     64167     64168     64169     64168     64170     64171     64172
     64171     64173     64174     64175     64174     64176     64177     64178
     64177     64179     64180     64181     64180     64182     64183     64184
     64183     64185     64186     64187     64186     64188     64189     64190
     64189     64191     64192     64193     64192     64194     64195     64196
     64195     64197     64198     64199     64198     64200     64201     64202
     64201     64203     64204     64205     64204     64206     64207     64208
     64207     64209     64210     64211     64210     64212     64213     64214
     64213     64215     64216     64217     64216     64218     64219     64220
     64219     64221     64222     64223     64222     64224     64225     64226
     64225     64227     64228     64229     64228     64230     64231     64232
     64231     64233     64234     64235     64234     64236     64237     64238
     64237     64239     64240     64241     64240     64242     64243     64244
     64243     64245     64246     64247     64246     64248     64249     64250
     64249     64251     64252     64253     64252     64254     64255     64256
     64255     64257     64258     64259     64258     64260     64261     64262
     64261     64263     64264     64265     64264     64266     64267     64268
     64267     64269     64270     64271     64270     64272     64273     64274
     64273     64275     64276     64277     64276     64278     64279     64280
     64279     64281     64282     64283     64282     64284     64285     64286
     64285     64287     64288     64289     64288     64290     64291     64292
     64291     64293     64294     64295     64294     64296     64297     64298
     64297     64299     64300     64301     64300     64302     64303     64304
     64303     64305     64306     64307     64306     64308     64309     64310
     64309     64311     64312     64313     64312     64314     64315     64316
     64315     64317     64318     64319     64318     64320     64321     64322
     64321     64323     64324     64325     64324     64326     64327     64328
     64327     64329     64330     64331     64330     64332     64333     64334
     64333     64335     64336     64337     64336     64338     64339     64340
     64339     64341     64342     64343     64342     64344     64345     64346
     64345     64347     64348     64349     64348     64350     64351     64352
     64351     64353     64354     64355     64354     64356     64357     64358
     64357     64359     64360     64361     64360     64362     64363     64364
     64363     64365     64366     64367     64366     64368     64369     64370
     64369     64371     64372     64373     64372     64374     64375     64376
     64375     64377     64378     64379     64378     64380     64381     64382
     64381     64383     64384     64385     64384     64386     64387     64388
     64387     64389     64390     64391     64390     64392     64393     64394
     64393     64395     64396     64397     64396     64398     64399     64400
     64399     64401     64402     64403     64402     64404     64405     64406
     64405     64407     64408     64409     64408     64410     64411     64412
     64411     64413     64414     64415     64414     64416     64417     64418
     64417     64419     64420     64421     64420     64422     64423     64424
     64423     64425     64426     64427     64426     64428     64429     64430
     64429     64431     64432     64433     64432     64434     64435     64436
     64435     64437     64438     64439     64438     64440     64441     64442
     64441     64443     64444     64445     64444     64446     64447     64448
     64447     64449     64450     64451     64450     64452     64453     64454
     64453     64455     64456     64457     64456     64458     64459     64460
     64459     64461     64462     64463     64462     64464     64465     64466
     64465     64467     64468     64469     64468     64470     64471     64472
     64471     64473     64474     64475     64474     64476     64477     64478
     64477     64479     64480     64481     64480     64482     64483     64484
     64483     64485     64486     64487     64486     64488     64489     64490
     64489     64491     64492     64493     64492     64494     64495     64496
     64495     64497     64498     64499     64498     64500     64501     64502
     64501     64503     64504     64505     64504     64506     64507     64508
     64507     64509     64510     64511     64510     64512     64513     64514
     64513     64515     64516     64517     64516     64518     64519     64520
     64519     64521     64522     64523     64522     64524     64525     64526
     64525     64527     64528     64529     64528     64530     64531     64532
     64531     64533     64534     64535     64534     64536     64537     64538
     64537     64539     64540     64541     64540     64542     64543     64544
     64543     64545     64546     64547     64546     64548     64549     64550
     64549     64551     64552     64553     64552     64554     64555     64556
     64555     64557     64558     64559     64558     64560     64561     64562
     64561     64563     64564     64565     64564     64566     64567     64568
     64567     64569     64570     64571     64570     64572     64573     64574
     64573     64575     64576     64577     64576     64578     64579     64580
     64579     64581     64582     64583     64582     64584     64585     64586
     64585     64587     64588     64589     64588     64590     64591     64592
     64591     64593     64594     64595     64594     64596     64597     64598
     64597     64599     64600     64601     64600     64602     64603     64604
     64603     64605     64606     64607     64606     64608     64609     64610
     64609     64611     64612     64613     64612     64614     64615     64616
     64615     64617     64618     64619     64618     64620     64621     64622
     64621     64623     64624     64625     64624     64626     64627     64628
     64627     64629     64630     64631     64630     64632     64633     64634
     64633     64635     64636     64637     64636     64638     64639     64640
     64639     64641     64642     64643     64642     64644     64645     64646
     64645     64647     64648     64649     64648     64650     64651     64652
     64651     64653     64654     64655     64654     64656     64657     64658
     64657     64659     64660     64661     64660     64662     64663     64664
     64663     64665     64666     64667     64666     64668     64669     64670
     64669     64671     64672     64673     64672     64674     64675     64676
     64675     64677     64678     64679     64678     64680     64681     64682
     64681     64683     64684     64685     64684     64686     64687     64688
     64687     64689     64690     64691     64690     64692     64693     64694
     64693     64695     64696     64697     64696     64698     64699     64700
     64699     64701     64702     64703     64702     64704     64705     64706
     64705     64707     64708     64709     64708     64710     64711     64712
     64711     64713     64714     64715     64714     64716     64717     64718
     64717     64719     64720     64721     64720     64722     64723     64724
     64723     64725     64726     64727     64726     64728     64729     64730
     64729     64731     64732     64733     64732     64734     64735     64736
     64735     64737     64738     64739     64738     64740     64741     64742
     64741     64743     64744     64745     64744     64746     64747     64748
     64747     64749     64750     64751     64750     64752     64753     64754
     64753     64755     64756     64757     64756     64758     64759     64760
     64759     64761     64762     64763     64762     64764     64765     64766
     64765     64767     64768     64769     64768     64770     64771     64772
     64771     64773     64774     64775     64774     64776     64777     64778
     64777     64779     64780     64781     64780     64782     64783     64784
     64783     64785     64786     64787     64786     64788     64789     64790
     64789     64791     64792     64793     64792     64794     64795     64796
     64795     64797     64798     64799     64798     64800     64801     64802
     64801     64803     64804     64805     64804     64806     64807     64808
     64807     64809     64810     64811     64810     64812     64813     64814
     64813     64815     64816     64817     64816     64818     64819     64820
     64819     64821     64822     64823     64822     64824     64825     64826
     64825     64827     64828     64829     64828     64830     64831     64832
     64831     64833     64834     64835     64834     64836     64837     64838
     64837     64839     64840     64841     64840     64842     64843     64844
     64843     64845     64846     64847     64846     64848     64849     64850
     64849     64851     64852     64853     64852     64854     64855     64856
     64855     64857     64858     64859     64858     64860     64861     64862
     64861     64863     64864     64865     64864     64866     64867     64868
     64867     64869     64870     64871     64870     64872     64873     64874
     64873     64875     64876     64877     64876     64878     64879     64880
     64879     64881     64882     64883     64882     64884     64885     64886
     64885     64887     64888     64889     64888     64890     64891     64892
     64891     64893     64894     64895     64894     64896     64897     64898
     64897     64899     64900     64901     64900     64902     64903     64904
     64903     64905     64906     64907     64906     64908     64909     64910
     64909     64911     64912     64913     64912     64914     64915     64916
     64915     64917     64918     64919     64918     64920     64921     64922
     64921     64923     64924     64925     64924     64926     64927     64928
     64927     64929     64930     64931     64930     64932     64933     64934
     64933     64935     64936     64937     64936     64938     64939     64940
     64939     64941     64942     64943     64942     64944     64945     64946
     64945     64947     64948     64949     64948     64950     64951     64952
     64951     64953     64954     64955     64954     64956     64957     64958
     64957     64959     64960     64961     64960     64962     64963     64964
     64963     64965     64966     64967     64966     64968     64969     64970
     64969     64971     64972     64973     64972     64974     64975     64976
     64975     64977     64978     64979     64978     64980     64981     64982
     64981     64983     64984     64985     64984     64986     64987     64988
     64987     64989     64990     64991     64990     64992     64993     64994
     64993     64995     64996     64997     64996     64998     64999     65000
     64999     65001     65002     65003     65002     65004     65005     65006
     65005     65007     65008     65009     65008     65010     65011     65012
     65011     65013     65014     65015     65014     65016     65017     65018
     65017     65019     65020     65021     65020     65022     65023     65024
     65023     65025     65026     65027     65026     65028     65029     65030
     65029     65031     65032     65033     65032     65034     65035     65036
     65035     65037     65038     65039     65038     65040     65041     65042
     65041     65043     65044     65045     65044     65046     65047     65048
     65047     65049     65050     65051     65050     65052     65053     65054
     65053     65055     65056     65057     65056     65058     65059     65060
     65059     65061     65062     65063     65062     65064     65065     65066
     65065     65067     65068     65069     65068     65070     65071     65072
     65071     65073     65074     65075     65074     65076     65077     65078
     65077     65079     65080     65081     65080     65082     65083     65084
     65083     65085     65086     65087     65086     65088     65089     65090
     65089     65091     65092     65093     65092     65094     65095     65096
     65095     65097     65098     65099     65098     65100     65101     65102
     65101     65103     65104     65105     65104     65106     65107     65108
     65107     65109     65110     65111     65110     65112     65113     65114
     65113     65115     65116     65117     65116     65118     65119     65120
     65119     65121     65122     65123     65122     65124     65125     65126
     65125     65127     65128     65129     65128     65130     65131     65132
     65131     65133     65134     65135     65134     65136     65137     65138
     65137     65139     65140     65141     65140     65142     65143     65144
     65143     65145     65146     65147     65146     65148     65149     65150
     65149     65151     65152     65153     65152     65154     65155     65156
     65155     65157     65158     65159     65158     65160     65161     65162
     65161     65163     65164     65165     65164     65166     65167     65168
     65167     65169     65170     65171     65170     65172     65173     65174
     65173     65175     65176     65177     65176     65178     65179     65180
     65179     65181     65182     65183     65182     65184     65185     65186
     65185     65187     65188     65189     65188     65190     65191     65192
     65191     65193     65194     65195     65194     65196     65197     65198
     65197     65199     65200     65201     65200     65202     65203     65204
     65203     65205     65206     65207     65206     65208     65209     65210
     65209     65211     65212     65213     65212     65214     65215     65216
     65215     65217     65218     65219     65218     65220     65221     65222
     65221     65223     65224     65225     65224     65226     65227     65228
     65227     65229     65230     65231     65230     65232     65233     65234
     65233     65235     65236     65237     65236     65238     65239     65240
     65239     65241     65242     65243     65242     65244     65245     65246
     65245     65247     65248     65249     65248     65250     65251     65252
     65251     65253     65254     65255     65254     65256     65257     65258
     65257     65259     65260     65261     65260     65262     65263     65264
     65263     65265     65266     65267     65266     65268     65269     65270
     65269     65271     65272     65273     65272     65274     65275     65276
     65275     65277     65278     65279     65278     65280     65281     65282
     65281     65283     65284     65285     65284     65286     65287     65288
     65287     65289     65290     65291     65290     65292     65293     65294
     65293     65295     65296     65297     65296     65298     65299     65300
     65299     65301     65302     65303     65302     65304     65305     65306
     65305     65307     65308     65309     65308     65310     65311     65312
     65311     65313     65314     65315     65314     65316     65317     65318
     65317     65319     65320     65321     65320     65322     65323     65324
     65323     65325     65326     65327     65326     65328     65329     65330
     65329     65331     65332     65333     65332     65334     65335     65336
     65335     65337     65338     65339     65338     65340     65341     65342
     65341     65343     65344     65345     65344     65346     65347     65348
     65347     65349     65350     65351     65350     65352     65353     65354
     65353     65355     65356     65357     65356     65358     65359     65360
     65359     65361     65362     65363     65362     65364     65365     65366
     65365     65367     65368     65369     65368     65370     65371     65372
     65371     65373     65374     65375     65374     65376     65377     65378
     65377     65379     65380     65381     65380     65382     65383     65384
     65383     65385     65386     65387     65386     65388     65389     65390
     65389     65391     65392     65393     65392     65394     65395     65396
     65395     65397     65398     65399     65398     65400     65401     65402
     65401     65403     65404     65405     65404     65406     65407     65408
     65407     65409     65410     65411     65410     65412     65413     65414
     65413     65415     65416     65417     65416     65418     65419     65420
     65419     65421     65422     65423     65422     65424     65425     65426
     65425     65427     65428     65429     65428     65430     65431     65432
     65431     65433     65434     65435     65434     65436     65437     65438
     65437     65439     65440     65441     65440     65442     65443     65444
     65443     65445     65446     65447     65446     65448     65449     65450
     65449     65451     65452     65453     65452     65454     65455     65456
     65455     65457     65458     65459     65458     65460     65461     65462
     65461     65463     65464     65465     65464     65466     65467     65468
     65467     65469     65470     65471     65470     65472     65473     65474
     65473     65475     65476     65477     65476     65478     65479     65480
     65479     65481     65482     65483     65482     65484     65485     65486
     65485     65487     65488     65489     65488     65490     65491     65492
     65491     65493     65494     65495     65494     65496     65497     65498
     65497     65499     65500     65501     65500     65502     65503     65504
     65503     65505     65506     65507     65506     65508     65509     65510
     65509     65511     65512     65513     65512     65514     65515     65516
     65515     65517     65518     65519     65518     65520     65521     65522
     65521     65523     65524     65525     65524     65526     65527     65528
     65527     65529     65530     65531     65530     65532     65533     65534
     65533     65535     65536     65537     65536     65538     65539     65540
     65539     65541     65542     65543     65542     65544     65545     65546
     65545     65547     65548     65549     65548     65550     65551     65552
     65551     65553     65554     65555     65554     65556     65557     65558
     65557     65559     65560     65561     65560     65562     65563     65564
     65563     65565     65566     65567     65566     65568     65569     65570
     65569     65571     65572     65573     65572     65574     65575     65576
     65575     65577     65578     65579     65578     65580     65581     65582
     65581     65583     65584     65585     65584     65586     65587     65588
     65587     65589     65590     65591     65590     65592     65593     65594
     65593     65595     65596     65597     65596     65598     65599     65600
     65599     65601     65602     65603     65602     65604     65605     65606
     65605     65607     65608     65609     65608     65610     65611     65612
     65611     65613     65614     65615     65614     65616     65617     65618
     65617     65619     65620     65621     65620     65622     65623     65624
     65623     65625     65626     65627     65626     65628     65629     65630
     65629     65631     65632     65633     65632     65634     65635     65636
     65635     65637     65638     65639     65638     65640     65641     65642
     65641     65643     65644     65645     65644     65646     65647     65648
     65647     65649     65650     65651     65650     65652     65653     65654
     65653     65655     65656     65657     65656     65658     65659     65660
     65659     65661     65662     65663     65662     65664     65665     65666
     65665     65667     65668     65669     65668     65670     65671     65672
     65671     65673     65674     65675     65674     65676     65677     65678
     65677     65679     65680     65681     65680     65682     65683     65684
     65683     65685     65686     65687     65686     65688     65689     65690
     65689     65691     65692     65693     65692     65694     65695     65696
     65695     65697     65698     65699     65698     65700     65701     65702
     65701     65703     65704     65705     65704     65706     65707     65708
     65707     65709     65710     65711     65710     65712     65713     65714
     65713     65715     65716     65717     65716     65718     65719     65720
     65719     65721     65722     65723     65722     65724     65725     65726
     65725     65727     65728     65729     65728     65730     65731     65732
     65731     65733     65734     65735     65734     65736     65737     65738
     65737     65739     65740     65741     65740     65742     65743     65744
     65743     65745     65746     65747     65746     65748     65749     65750
     65749     65751     65752     65753     65752     65754     65755     65756
     65755     65757     65758     65759     65758     65760     65761     65762
     65761     65763     65764     65765     65764     65766     65767     65768
     65767     65769     65770     65771     65770     65772     65773     65774
     65773     65775     65776     65777     65776     65778     65779     65780
     65779     65781     65782     65783     65782     65784     65785     65786
     65785     65787     65788     65789     65788     65790     65791     65792
     65791     65793     65794     65795     65794     65796     65797     65798
     65797     65799     65800     65801     65800     65802     65803     65804
     65803     65805     65806     65807     65806     65808     65809     65810
     65809     65811     65812     65813     65812     65814     65815     65816
     65815     65817     65818     65819     65818     65820     65821     65822
     65821     65823     65824     65825     65824     65826     65827     65828
     65827     65829     65830     65831     65830     65832     65833     65834
     65833     65835     65836     65837     65836     65838     65839     65840
     65839     65841     65842     65843     65842     65844     65845     65846
     65845     65847     65848     65849     65848     65850     65851     65852
     65851     65853     65854     65855     65854     65856     65857     65858
     65857     65859     65860     65861     65860     65862     65863     65864
     65863     65865     65866     65867     65866     65868     65869     65870
     65869     65871     65872     65873     65872     65874     65875     65876
     65875     65877     65878     65879     65878     65880     65881     65882
     65881     65883     65884     65885     65884     65886     65887     65888
     65887     65889     65890     65891     65890     65892     65893     65894
     65893     65895     65896     65897     65896     65898     65899     65900
     65899     65901     65902     65903     65902     65904     65905     65906
     65905     65907     65908     65909     65908     65910     65911     65912
     65911     65913     65914     65915     65914     65916     65917     65918
     65917     65919     65920     65921     65920     65922     65923     65924
     65923     65925     65926     65927     65926     65928     65929     65930
     65929     65931     65932     65933     65932     65934     65935     65936
     65935     65937     65938     65939     65938     65940     65941     65942
     65941     65943     65944     65945     65944     65946     65947     65948
     65947     65949     65950     65951     65950     65952     65953     65954
     65953     65955     65956     65957     65956     65958     65959     65960
     65959     65961     65962     65963     65962     65964     65965     65966
     65965     65967     65968     65969     65968     65970     65971     65972
     65971     65973     65974     65975     65974     65976     65977     65978
     65977     65979     65980     65981     65980     65982     65983     65984
     65983     65985     65986     65987     65986     65988     65989     65990
     65989     65991     65992     65993     65992     65994     65995     65996
     65995     65997     65998     65999     65998     66000     66001     66002
     66001     66003     66004     66005     66004     66006     66007     66008
     66007     66009     66010     66011     66010     66012     66013     66014
     66013     66015     66016     66017     66016     66018     66019     66020
     66019     66021     66022     66023     66022     66024     66025     66026
     66025     66027     66028     66029     66028     66030     66031     66032
     66031     66033     66034     66035     66034     66036     66037     66038
     66037     66039     66040     66041     66040     66042     66043     66044
     66043     66045     66046     66047     66046     66048     66049     66050
     66049     66051     66052     66053     66052     66054     66055     66056
     66055     66057     66058     66059     66058     66060     66061     66062
     66061     66063     66064     66065     66064     66066     66067     66068
     66067     66069     66070     66071     66070     66072     66073     66074
     66073     66075     66076     66077     66076     66078     66079     66080
     66079     66081     66082     66083     66082     66084     66085     66086
     66085     66087     66088     66089     66088     66090     66091     66092
     66091     66093     66094     66095     66094     66096     66097     66098
     66097     66099     66100     66101     66100     66102     66103     66104
     66103     66105     66106     66107     66106     66108     66109     66110
     66109     66111     66112     66113     66112     66114     66115     66116
     66115     66117     66118     66119     66118     66120     66121     66122
     66121     66123     66124     66125     66124     66126     66127     66128
     66127     66129     66130     66131     66130     66132     66133     66134
     66133     66135     66136     66137     66136     66138     66139     66140
     66139     66141     66142     66143     66142     66144     66145     66146
     66145     66147     66148     66149     66148     66150     66151     66152
     66151     66153     66154     66155     66154     66156     66157     66158
     66157     66159     66160     66161     66160     66162     66163     66164
     66163     66165     66166     66167     66166     66168     66169     66170
     66169     66171     66172     66173     66172     66174     66175     66176
     66175     66177     66178     66179     66178     66180     66181     66182
     66181     66183     66184     66185     66184     66186     66187     66188
     66187     66189     66190     66191     66190     66192     66193     66194
     66193     66195     66196     66197     66196     66198     66199     66200
     66199     66201     66202     66203     66202     66204     66205     66206
     66205     66207     66208     66209     66208     66210     66211     66212
     66211     66213     66214     66215     66214     66216     66217     66218
     66217     66219     66220     66221     66220     66222     66223     66224
     66223     66225     66226     66227     66226     66228     66229     66230
     66229     66231     66232     66233     66232     66234     66235     66236
     66235     66237     66238     66239     66238     66240     66241     66242
     66241     66243     66244     66245     66244     66246     66247     66248
     66247     66249     66250     66251     66250     66252     66253     66254
     66253     66255     66256     66257     66256     66258     66259     66260
     66259     66261     66262     66263     66262     66264     66265     66266
     66265     66267     66268     66269     66268     66270     66271     66272
     66271     66273     66274     66275     66274     66276     66277     66278
     66277     66279     66280     66281     66280     66282     66283     66284
     66283     66285     66286     66287     66286     66288     66289     66290
     66289     66291     66292     66293     66292     66294     66295     66296
     66295     66297     66298     66299     66298     66300     66301     66302
     66301     66303     66304     66305     66304     66306     66307     66308
     66307     66309     66310     66311     66310     66312     66313     66314
     66313     66315     66316     66317     66316     66318     66319     66320
     66319     66321     66322     66323     66322     66324     66325     66326
     66325     66327     66328     66329     66328     66330     66331     66332
     66331     66333     66334     66335     66334     66336     66337     66338
     66337     66339     66340     66341     66340     66342     66343     66344
     66343     66345     66346     66347     66346     66348     66349     66350
     66349     66351     66352     66353     66352     66354     66355     66356
     66355     66357     66358     66359     66358     66360     66361     66362
     66361     66363     66364     66365     66364     66366     66367     66368
     66367     66369     66370     66371     66370     66372     66373     66374
     66373     66375     66376     66377     66376     66378     66379     66380
     66379     66381     66382     66383     66382     66384     66385     66386
     66385     66387     66388     66389     66388     66390     66391     66392
     66391     66393     66394     66395     66394     66396     66397     66398
     66397     66399     66400     66401     66400     66402     66403     66404
     66403     66405     66406     66407     66406     66408     66409     66410
     66409     66411     66412     66413     66412     66414     66415     66416
     66415     66417     66418     66419     66418     66420     66421     66422
     66421     66423     66424     66425     66424     66426     66427     66428
     66427     66429     66430     66431     66430     66432     66433     66434
     66433     66435     66436     66437     66436     66438     66439     66440
     66439     66441     66442     66443     66442     66444     66445     66446
     66445     66447     66448     66449     66448     66450     66451     66452
     66451     66453     66454     66455     66454     66456     66457     66458
     66457     66459     66460     66461     66460     66462     66463     66464
     66463     66465     66466     66467     66466     66468     66469     66470
     66469     66471     66472     66473     66472     66474     66475     66476
     66475     66477     66478     66479     66478     66480     66481     66482
     66481     66483     66484     66485     66484     66486     66487     66488
     66487     66489     66490     66491     66490     66492     66493     66494
     66493     66495     66496     66497     66496     66498     66499     66500
     66499     66501     66502     66503     66502     66504     66505     66506
     66505     66507     66508     66509     66508     66510     66511     66512
     66511     66513     66514     66515     66514     66516     66517     66518
     66517     66519     66520     66521     66520     66522     66523     66524
     66523     66525     66526     66527     66526     66528     66529     66530
     66529     66531     66532     66533     66532     66534     66535     66536
     66535     66537     66538     66539     66538     66540     66541     66542
     66541     66543     66544     66545     66544     66546     66547     66548
     66547     66549     66550     66551     66550     66552     66553     66554
     66553     66555     66556     66557     66556     66558     66559     66560
     66559     66561     66562     66563     66562     66564     66565     66566
     66565     66567     66568     66569     66568     66570     66571     66572
     66571     66573     66574     66575     66574     66576     66577     66578
     66577     66579     66580     66581     66580     66582     66583     66584
     66583     66585     66586     66587     66586     66588     66589     66590
     66589     66591     66592     66593     66592     66594     66595     66596
     66595     66597     66598     66599     66598     66600     66601     66602
     66601     66603     66604     66605     66604     66606     66607     66608
     66607     66609     66610     66611     66610     66612     66613     66614
     66613     66615     66616     66617     66616     66618     66619     66620
     66619     66621     66622     66623     66622     66624     66625     66626
     66625     66627     66628     66629     66628     66630     66631     66632
     66631     66633     66634     66635     66634     66636     66637     66638
     66637     66639     66640     66641     66640     66642     66643     66644
     66643     66645     66646     66647     66646     66648     66649     66650
     66649     66651     66652     66653     66652     66654     66655     66656
     66655     66657     66658     66659     66658     66660     66661     66662
     66661     66663     66664     66665     66664     66666     66667     66668
     66667     66669     66670     66671     66670     66672     66673     66674
     66673     66675     66676     66677     66676     66678     66679     66680
     66679     66681     66682     66683     66682     66684     66685     66686
     66685     66687     66688     66689     66688     66690     66691     66692
     66691     66693     66694     66695     66694     66696     66697     66698
     66697     66699     66700     66701     66700     66702     66703     66704
     66703     66705     66706     66707     66706     66708     66709     66710
     66709     66711     66712     66713     66712     66714     66715     66716
     66715     66717     66718     66719     66718     66720     66721     66722
     66721     66723     66724     66725     66724     66726     66727     66728
     66727     66729     66730     66731     66730     66732     66733     66734
     66733     66735     66736     66737     66736     66738     66739     66740
     66739     66741     66742     66743     66742     66744     66745     66746
     66745     66747     66748     66749     66748     66750     66751     66752
     66751     66753     66754     66755     66754     66756     66757     66758
     66757     66759     66760     66761     66760     66762     66763     66764
     66763     66765     66766     66767     66766     66768     66769     66770
     66769     66771     66772     66773     66772     66774     66775     66776
     66775     66777     66778     66779     66778     66780     66781     66782
     66781     66783     66784     66785     66784     66786     66787     66788
     66787     66789     66790     66791     66790     66792     66793     66794
     66793     66795     66796     66797     66796     66798     66799     66800
     66799     66801     66802     66803     66802     66804     66805     66806
     66805     66807     66808     66809     66808     66810     66811     66812
     66811     66813     66814     66815     66814     66816     66817     66818
     66817     66819     66820     66821     66820     66822     66823     66824
     66823     66825     66826     66827     66826     66828     66829     66830
     66829     66831     66832     66833     66832     66834     66835     66836
     66835     66837     66838     66839     66838     66840     66841     66842
     66841     66843     66844     66845     66844     66846     66847     66848
     66847     66849     66850     66851     66850     66852     66853     66854
     66853     66855     66856     66857     66856     66858     66859     66860
     66859     66861     66862     66863     66862     66864     66865     66866
     66865     66867     66868     66869     66868     66870     66871     66872
     66871     66873     66874     66875     66874     66876     66877     66878
     66877     66879     66880     66881     66880     66882     66883     66884
     66883     66885     66886     66887     66886     66888     66889     66890
     66889     66891     66892     66893     66892     66894     66895     66896
     66895     66897     66898     66899     66898     66900     66901     66902
     66901     66903     66904     66905     66904     66906     66907     66908
     66907     66909     66910     66911     66910     66912     66913     66914
     66913     66915     66916     66917     66916     66918     66919     66920
     66919     66921     66922     66923     66922     66924     66925     66926
     66925     66927     66928     66929     66928     66930     66931     66932
     66931     66933     66934     66935     66934     66936     66937     66938
     66937     66939     66940     66941     66940     66942     66943     66944
     66943     66945     66946     66947     66946     66948     66949     66950
     66949     66951     66952     66953     66952     66954     66955     66956
     66955     66957     66958     66959     66958     66960     66961     66962
     66961     66963     66964     66965     66964     66966     66967     66968
     66967     66969     66970     66971     66970     66972     66973     66974
     66973     66975     66976     66977     66976     66978     66979     66980
     66979     66981     66982     66983     66982     66984     66985     66986
     66985     66987     66988     66989     66988     66990     66991     66992
     66991     66993     66994     66995     66994     66996     66997     66998
     66997     66999     67000     67001     67000     67002     67003     67004
     67003     67005     67006     67007     67006     67008     67009     67010
     67009     67011     67012     67013     67012     67014     67015     67016
     67015     67017     67018     67019     67018     67020     67021     67022
     67021     67023     67024     67025     67024     67026     67027     67028
     67027     67029     67030     67031     67030     67032     67033     67034
     67033     67035     67036     67037     67036     67038     67039     67040
     67039     67041     67042     67043     67042     67044     67045     67046
     67045     67047     67048     67049     67048     67050     67051     67052
     67051     67053     67054     67055     67054     67056     67057     67058
     67057     67059     67060     67061     67060     67062     67063     67064
     67063     67065     67066     67067     67066     67068     67069     67070
     67069     67071     67072     67073     67072     67074     67075     67076
     67075     67077     67078     67079     67078     67080     67081     67082
     67081     67083     67084     67085     67084     67086     67087     67088
     67087     67089     67090     67091     67090     67092     67093     67094
     67093     67095     67096     67097     67096     67098     67099     67100
     67099     67101     67102     67103     67102     67104     67105     67106
     67105     67107     67108     67109     67108     67110     67111     67112
     67111     67113     67114     67115     67114     67116     67117     67118
     67117     67119     67120     67121     67120     67122     67123     67124
     67123     67125     67126     67127     67126     67128     67129     67130
     67129     67131     67132     67133     67132     67134     67135     67136
     67135     67137     67138     67139     67138     67140     67141     67142
     67141     67143     67144     67145     67144     67146     67147     67148
     67147     67149     67150     67151     67150     67152     67153     67154
     67153     67155     67156     67157     67156     67158     67159     67160
     67159     67161     67162     67163     67162     67164     67165     67166
     67165     67167     67168     67169     67168     67170     67171     67172
     67171     67173     67174     67175     67174     67176     67177     67178
     67177     67179     67180     67181     67180     67182     67183     67184
     67183     67185     67186     67187     67186     67188     67189     67190
     67189     67191     67192     67193     67192     67194     67195     67196
     67195     67197     67198     67199     67198     67200     67201     67202
     67201     67203     67204     67205     67204     67206     67207     67208
     67207     67209     67210     67211     67210     67212     67213     67214
     67213     67215     67216     67217     67216     67218     67219     67220
     67219     67221     67222     67223     67222     67224     67225     67226
     67225     67227     67228     67229     67228     67230     67231     67232
     67231     67233     67234     67235     67234     67236     67237     67238
     67237     67239     67240     67241     67240     67242     67243     67244
     67243     67245     67246     67247     67246     67248     67249     67250
     67249     67251     67252     67253     67252     67254     67255     67256
     67255     67257     67258     67259     67258     67260     67261     67262
     67261     67263     67264     67265     67264     67266     67267     67268
     67267     67269     67270     67271     67270     67272     67273     67274
     67273     67275     67276     67277     67276     67278     67279     67280
     67279     67281     67282     67283     67282     67284     67285     67286
     67285     67287     67288     67289     67288     67290     67291     67292
     67291     67293     67294     67295     67294     67296     67297     67298
     67297     67299     67300     67301     67300     67302     67303     67304
     67303     67305     67306     67307     67306     67308     67309     67310
     67309     67311     67312     67313     67312     67314     67315     67316
     67315     67317     67318     67319     67318     67320     67321     67322
     67321     67323     67324     67325     67324     67326     67327     67328
     67327     67329     67330     67331     67330     67332     67333     67334
     67333     67335     67336     67337     67336     67338     67339     67340
     67339     67341     67342     67343     67342     67344     67345     67346
     67345     67347     67348     67349     67348     67350     67351     67352
     67351     67353     67354     67355     67354     67356     67357     67358
     67357     67359     67360     67361     67360     67362     67363     67364
     67363     67365     67366     67367     67366     67368     67369     67370
     67369     67371     67372     67373     67372     67374     67375     67376
     67375     67377     67378     67379     67378     67380     67381     67382
     67381     67383     67384     67385     67384     67386     67387     67388
     67387     67389     67390     67391     67390     67392     67393     67394
     67393     67395     67396     67397     67396     67398     67399     67400
     67399     67401     67402     67403     67402     67404     67405     67406
     67405     67407     67408     67409     67408     67410     67411     67412
     67411     67413     67414     67415     67414     67416     67417     67418
     67417     67419     67420     67421     67420     67422     67423     67424
     67423     67425     67426     67427     67426     67428     67429     67430
     67429     67431     67432     67433     67432     67434     67435     67436
     67435     67437     67438     67439     67438     67440     67441     67442
     67441     67443     67444     67445     67444     67446     67447     67448
     67447     67449     67450     67451     67450     67452     67453     67454
     67453     67455     67456     67457     67456     67458     67459     67460
     67459     67461     67462     67463     67462     67464     67465     67466
     67465     67467     67468     67469     67468     67470     67471     67472
     67471     67473     67474     67475     67474     67476     67477     67478
     67477     67479     67480     67481     67480     67482     67483     67484
     67483     67485     67486     67487     67486     67488     67489     67490
     67489     67491     67492     67493     67492     67494     67495     67496
     67495     67497     67498     67499     67498     67500     67501     67502
     67501     67503     67504     67505     67504     67506     67507     67508
     67507     67509     67510     67511     67510     67512     67513     67514
     67513     67515     67516     67517     67516     67518     67519     67520
     67519     67521     67522     67523     67522     67524     67525     67526
     67525     67527     67528     67529     67528     67530     67531     67532
     67531     67533     67534     67535     67534     67536     67537     67538
     67537     67539     67540     67541     67540     67542     67543     67544
     67543     67545     67546     67547     67546     67548     67549     67550
     67549     67551     67552     67553     67552     67554     67555     67556
     67555     67557     67558     67559     67558     67560     67561     67562
     67561     67563     67564     67565     67564     67566     67567     67568
     67567     67569     67570     67571     67570     67572     67573     67574
     67573     67575     67576     67577     67576     67578     67579     67580
     67579     67581     67582     67583     67582     67584     67585     67586
     67585     67587     67588     67589     67588     67590     67591     67592
     67591     67593     67594     67595     67594     67596     67597     67598
     67597     67599     67600     67601     67600     67602     67603     67604
     67603     67605     67606     67607     67606     67608     67609     67610
     67609     67611     67612     67613     67612     67614     67615     67616
     67615     67617     67618     67619     67618     67620     67621     67622
     67621     67623     67624     67625     67624     67626     67627     67628
     67627     67629     67630     67631     67630     67632     67633     67634
     67633     67635     67636     67637     67636     67638     67639     67640
     67639     67641     67642     67643     67642     67644     67645     67646
     67645     67647     67648     67649     67648     67650     67651     67652
     67651     67653     67654     67655     67654     67656     67657     67658
     67657     67659     67660     67661     67660     67662     67663     67664
     67663     67665     67666     67667     67666     67668     67669     67670
     67669     67671     67672     67673     67672     67674     67675     67676
     67675     67677     67678     67679     67678     67680     67681     67682
     67681     67683     67684     67685     67684     67686     67687     67688
     67687     67689     67690     67691     67690     67692     67693     67694
     67693     67695     67696     67697     67696     67698     67699     67700
     67699     67701     67702     67703     67702     67704     67705     67706
     67705     67707     67708     67709     67708     67710     67711     67712
     67711     67713     67714     67715     67714     67716     67717     67718
     67717     67719     67720     67721     67720     67722     67723     67724
     67723     67725     67726     67727     67726     67728     67729     67730
     67729     67731     67732     67733     67732     67734     67735     67736
     67735     67737     67738     67739     67738     67740     67741     67742
     67741     67743     67744     67745     67744     67746     67747     67748
     67747     67749     67750     67751     67750     67752     67753     67754
     67753     67755     67756     67757     67756     67758     67759     67760
     67759     67761     67762     67763     67762     67764     67765     67766
     67765     67767     67768     67769     67768     67770     67771     67772
     67771     67773     67774     67775     67774     67776     67777     67778
     67777     67779     67780     67781     67780     67782     67783     67784
     67783     67785     67786     67787     67786     67788     67789     67790
     67789     67791     67792     67793     67792     67794     67795     67796
     67795     67797     67798     67799     67798     67800     67801     67802
     67801     67803     67804     67805     67804     67806     67807     67808
     67807     67809     67810     67811     67810     67812     67813     67814
     67813     67815     67816     67817     67816     67818     67819     67820
     67819     67821     67822     67823     67822     67824     67825     67826
     67825     67827     67828     67829     67828     67830     67831     67832
     67831     67833     67834     67835     67834     67836     67837     67838
     67837     67839     67840     67841     67840     67842     67843     67844
     67843     67845     67846     67847     67846     67848     67849     67850
     67849     67851     67852     67853     67852     67854     67855     67856
     67855     67857     67858     67859     67858     67860     67861     67862
     67861     67863     67864     67865     67864     67866     67867     67868
     67867     67869     67870     67871     67870     67872     67873     67874
     67873     67875     67876     67877     67876     67878     67879     67880
     67879     67881     67882     67883     67882     67884     67885     67886
     67885     67887     67888     67889     67888     67890     67891     67892
     67891     67893     67894     67895     67894     67896     67897     67898
     67897     67899     67900     67901     67900     67902     67903     67904
     67903     67905     67906     67907     67906     67908     67909     67910
     67909     67911     67912     67913     67912     67914     67915     67916
     67915     67917     67918     67919     67918     67920     67921     67922
     67921     67923     67924     67925     67924     67926     67927     67928
     67927     67929     67930     67931     67930     67932     67933     67934
     67933     67935     67936     67937     67936     67938     67939     67940
     67939     67941     67942     67943     67942     67944     67945     67946
     67945     67947     67948     67949     67948     67950     67951     67952
     67951     67953     67954     67955     67954     67956     67957     67958
     67957     67959     67960     67961     67960     67962     67963     67964
     67963     67965     67966     67967     67966     67968     67969     67970
     67969     67971     67972     67973     67972     67974     67975     67976
     67975     67977     67978     67979     67978     67980     67981     67982
     67981     67983     67984     67985     67984     67986     67987     67988
     67987     67989     67990     67991     67990     67992     67993     67994
     67993     67995     67996     67997     67996     67998     67999     68000
     67999     68001     68002     68003     68002     68004     68005     68006
     68005     68007     68008     68009     68008     68010     68011     68012
     68011     68013     68014     68015     68014     68016     68017     68018
     68017     68019     68020     68021     68020     68022     68023     68024
     68023     68025     68026     68027     68026     68028     68029     68030
     68029     68031     68032     68033     68032     68034     68035     68036
     68035     68037     68038     68039     68038     68040     68041     68042
     68041     68043     68044     68045     68044     68046     68047     68048
     68047     68049     68050     68051     68050     68052     68053     68054
     68053     68055     68056     68057     68056     68058     68059     68060
     68059     68061     68062     68063     68062     68064     68065     68066
     68065     68067     68068     68069     68068     68070     68071     68072
     68071     68073     68074     68075     68074     68076     68077     68078
     68077     68079     68080     68081     68080     68082     68083     68084
     68083     68085     68086     68087     68086     68088     68089     68090
     68089     68091     68092     68093     68092     68094     68095     68096
     68095     68097     68098     68099     68098     68100     68101     68102
     68101     68103     68104     68105     68104     68106     68107     68108
     68107     68109     68110     68111     68110     68112     68113     68114
     68113     68115     68116     68117     68116     68118     68119     68120
     68119     68121     68122     68123     68122     68124     68125     68126
     68125     68127     68128     68129     68128     68130     68131     68132
     68131     68133     68134     68135     68134     68136     68137     68138
     68137     68139     68140     68141     68140     68142     68143     68144
     68143     68145     68146     68147     68146     68148     68149     68150
     68149     68151     68152     68153     68152     68154     68155     68156
     68155     68157     68158     68159     68158     68160     68161     68162
     68161     68163     68164     68165     68164     68166     68167     68168
     68167     68169     68170     68171     68170     68172     68173     68174
     68173     68175     68176     68177     68176     68178     68179     68180
     68179     68181     68182     68183     68182     68184     68185     68186
     68185     68187     68188     68189     68188     68190     68191     68192
     68191     68193     68194     68195     68194     68196     68197     68198
     68197     68199     68200     68201     68200     68202     68203     68204
     68203     68205     68206     68207     68206     68208     68209     68210
     68209     68211     68212     68213     68212     68214     68215     68216
     68215     68217     68218     68219     68218     68220     68221     68222
     68221     68223     68224     68225     68224     68226     68227     68228
     68227     68229     68230     68231     68230     68232     68233     68234
     68233     68235     68236     68237     68236     68238     68239     68240
     68239     68241     68242     68243     68242     68244     68245     68246
     68245     68247     68248     68249     68248     68250     68251     68252
     68251     68253     68254     68255     68254     68256     68257     68258
     68257     68259     68260     68261     68260     68262     68263     68264
     68263     68265     68266     68267     68266     68268     68269     68270
     68269     68271     68272     68273     68272     68274     68275     68276
     68275     68277     68278     68279     68278     68280     68281     68282
     68281     68283     68284     68285     68284     68286     68287     68288
     68287     68289     68290     68291     68290     68292     68293     68294
     68293     68295     68296     68297     68296     68298     68299     68300
     68299     68301     68302     68303     68302     68304     68305     68306
     68305     68307     68308     68309     68308     68310     68311     68312
     68311     68313     68314     68315     68314     68316     68317     68318
     68317     68319     68320     68321     68320     68322     68323     68324
     68323     68325     68326     68327     68326     68328     68329     68330
     68329     68331     68332     68333     68332     68334     68335     68336
     68335     68337     68338     68339     68338     68340     68341     68342
     68341     68343     68344     68345     68344     68346     68347     68348
     68347     68349     68350     68351     68350     68352     68353     68354
     68353     68355     68356     68357     68356     68358     68359     68360
     68359     68361     68362     68363     68362     68364     68365     68366
     68365     68367     68368     68369     68368     68370     68371     68372
     68371     68373     68374     68375     68374     68376     68377     68378
     68377     68379     68380     68381     68380     68382     68383     68384
     68383     68385     68386     68387     68386     68388     68389     68390
     68389     68391     68392     68393     68392     68394     68395     68396
     68395     68397     68398     68399     68398     68400     68401     68402
     68401     68403     68404     68405     68404     68406     68407     68408
     68407     68409     68410     68411     68410     68412     68413     68414
     68413     68415     68416     68417     68416     68418     68419     68420
     68419     68421     68422     68423     68422     68424     68425     68426
     68425     68427     68428     68429     68428     68430     68431     68432
     68431     68433     68434     68435     68434     68436     68437     68438
     68437     68439     68440     68441     68440     68442     68443     68444
     68443     68445     68446     68447     68446     68448     68449     68450
     68449     68451     68452     68453     68452     68454     68455     68456
     68455     68457     68458     68459     68458     68460     68461     68462
     68461     68463     68464     68465     68464     68466     68467     68468
     68467     68469     68470     68471     68470     68472     68473     68474
     68473     68475     68476     68477     68476     68478     68479     68480
     68479     68481     68482     68483     68482     68484     68485     68486
     68485     68487     68488     68489     68488     68490     68491     68492
     68491     68493     68494     68495     68494     68496     68497     68498
     68497     68499     68500     68501     68500     68502     68503     68504
     68503     68505     68506     68507     68506     68508     68509     68510
     68509     68511     68512     68513     68512     68514     68515     68516
     68515     68517     68518     68519     68518     68520     68521     68522
     68521     68523     68524     68525     68524     68526     68527     68528
     68527     68529     68530     68531     68530     68532     68533     68534
     68533     68535     68536     68537     68536     68538     68539     68540
     68539     68541     68542     68543     68542     68544     68545     68546
     68545     68547     68548     68549     68548     68550     68551     68552
     68551     68553     68554     68555     68554     68556     68557     68558
     68557     68559     68560     68561     68560     68562     68563     68564
     68563     68565     68566     68567     68566     68568     68569     68570
     68569     68571     68572     68573     68572     68574     68575     68576
     68575     68577     68578     68579     68578     68580     68581     68582
     68581     68583     68584     68585     68584     68586     68587     68588
     68587     68589     68590     68591     68590     68592     68593     68594
     68593     68595     68596     68597     68596     68598     68599     68600
     68599     68601     68602     68603     68602     68604     68605     68606
     68605     68607     68608     68609     68608     68610     68611     68612
     68611     68613     68614     68615     68614     68616     68617     68618
     68617     68619     68620     68621     68620     68622     68623     68624
     68623     68625     68626     68627     68626     68628     68629     68630
     68629     68631     68632     68633     68632     68634     68635     68636
     68635     68637     68638     68639     68638     68640     68641     68642
     68641     68643     68644     68645     68644     68646     68647     68648
     68647     68649     68650     68651     68650     68652     68653     68654
     68653     68655     68656     68657     68656     68658     68659     68660
     68659     68661     68662     68663     68662     68664     68665     68666
     68665     68667     68668     68669     68668     68670     68671     68672
     68671     68673     68674     68675     68674     68676     68677     68678
     68677     68679     68680     68681     68680     68682     68683     68684
     68683     68685     68686     68687     68686     68688     68689     68690
     68689     68691     68692     68693     68692     68694     68695     68696
     68695     68697     68698     68699     68698     68700     68701     68702
     68701     68703     68704     68705     68704     68706     68707     68708
     68707     68709     68710     68711     68710     68712     68713     68714
     68713     68715     68716     68717     68716     68718     68719     68720
     68719     68721     68722     68723     68722     68724     68725     68726
     68725     68727     68728     68729     68728     68730     68731     68732
     68731     68733     68734     68735     68734     68736     68737     68738
     68737     68739     68740     68741     68740     68742     68743     68744
     68743     68745     68746     68747     68746     68748     68749     68750
     68749     68751     68752     68753     68752     68754     68755     68756
     68755     68757     68758     68759     68758     68760     68761     68762
     68761     68763     68764     68765     68764     68766     68767     68768
     68767     68769     68770     68771     68770     68772     68773     68774
     68773     68775     68776     68777     68776     68778     68779     68780
     68779     68781     68782     68783     68782     68784     68785     68786
     68785     68787     68788     68789     68788     68790     68791     68792
     68791     68793     68794     68795     68794     68796     68797     68798
     68797     68799     68800     68801     68800     68802     68803     68804
     68803     68805     68806     68807     68806     68808     68809     68810
     68809     68811     68812     68813     68812     68814     68815     68816
     68815     68817     68818     68819     68818     68820     68821     68822
     68821     68823     68824     68825     68824     68826     68827     68828
     68827     68829     68830     68831     68830     68832     68833     68834
     68833     68835     68836     68837     68836     68838     68839     68840
     68839     68841     68842     68843     68842     68844     68845     68846
     68845     68847     68848     68849     68848     68850     68851     68852
     68851     68853     68854     68855     68854     68856     68857     68858
     68857     68859     68860     68861     68860     68862     68863     68864
     68863     68865     68866     68867     68866     68868     68869     68870
     68869     68871     68872     68873     68872     68874     68875     68876
     68875     68877     68878     68879     68878     68880     68881     68882
     68881     68883     68884     68885     68884     68886     68887     68888
     68887     68889     68890     68891     68890     68892     68893     68894
     68893     68895     68896     68897     68896     68898     68899     68900
     68899     68901     68902     68903     68902     68904     68905     68906
     68905     68907     68908     68909     68908     68910     68911     68912
     68911     68913     68914     68915     68914     68916     68917     68918
     68917     68919     68920     68921     68920     68922     68923     68924
     68923     68925     68926     68927     68926     68928     68929     68930
     68929     68931     68932     68933     68932     68934     68935     68936
     68935     68937     68938     68939     68938     68940     68941     68942
     68941     68943     68944     68945     68944     68946     68947     68948
     68947     68949     68950     68951     68950     68952     68953     68954
     68953     68955     68956     68957     68956     68958     68959     68960
     68959     68961     68962     68963     68962     68964     68965     68966
     68965     68967     68968     68969     68968     68970     68971     68972
     68971     68973     68974     68975     68974     68976     68977     68978
     68977     68979     68980     68981     68980     68982     68983     68984
     68983     68985     68986     68987     68986     68988     68989     68990
     68989     68991     68992     68993     68992     68994     68995     68996
     68995     68997     68998     68999     68998     69000     69001     69002
     69001     69003     69004     69005     69004     69006     69007     69008
     69007     69009     69010     69011     69010     69012     69013     69014
     69013     69015     69016     69017     69016     69018     69019     69020
     69019     69021     69022     69023     69022     69024     69025     69026
     69025     69027     69028     69029     69028     69030     69031     69032
     69031     69033     69034     69035     69034     69036     69037     69038
     69037     69039     69040     69041     69040     69042     69043     69044
     69043     69045     69046     69047     69046     69048     69049     69050
     69049     69051     69052     69053     69052     69054     69055     69056
     69055     69057     69058     69059     69058     69060     69061     69062
     69061     69063     69064     69065     69064     69066     69067     69068
     69067     69069     69070     69071     69070     69072     69073     69074
     69073     69075     69076     69077     69076     69078     69079     69080
     69079     69081     69082     69083     69082     69084     69085     69086
     69085     69087     69088     69089     69088     69090     69091     69092
     69091     69093     69094     69095     69094     69096     69097     69098
     69097     69099     69100     69101     69100     69102     69103     69104
     69103     69105     69106     69107     69106     69108     69109     69110
     69109     69111     69112     69113     69112     69114     69115     69116
     69115     69117     69118     69119     69118     69120     69121     69122
     69121     69123     69124     69125     69124     69126     69127     69128
     69127     69129     69130     69131     69130     69132     69133     69134
     69133     69135     69136     69137     69136     69138     69139     69140
     69139     69141     69142     69143     69142     69144     69145     69146
     69145     69147     69148     69149     69148     69150     69151     69152
     69151     69153     69154     69155     69154     69156     69157     69158
     69157     69159     69160     69161     69160     69162     69163     69164
     69163     69165     69166     69167     69166     69168     69169     69170
     69169     69171     69172     69173     69172     69174     69175     69176
     69175     69177     69178     69179     69178     69180     69181     69182
     69181     69183     69184     69185     69184     69186     69187     69188
     69187     69189     69190     69191     69190     69192     69193     69194
     69193     69195     69196     69197     69196     69198     69199     69200
     69199     69201     69202     69203     69202     69204     69205     69206
     69205     69207     69208     69209     69208     69210     69211     69212
     69211     69213     69214     69215     69214     69216     69217     69218
     69217     69219     69220     69221     69220     69222     69223     69224
     69223     69225     69226     69227     69226     69228     69229     69230
     69229     69231     69232     69233     69232     69234     69235     69236
     69235     69237     69238     69239     69238     69240     69241     69242
     69241     69243     69244     69245     69244     69246     69247     69248
     69247     69249     69250     69251     69250     69252     69253     69254
     69253     69255     69256     69257     69256     69258     69259     69260
     69259     69261     69262     69263     69262     69264     69265     69266
     69265     69267     69268     69269     69268     69270     69271     69272
     69271     69273     69274     69275     69274     69276     69277     69278
     69277     69279     69280     69281     69280     69282     69283     69284
     69283     69285     69286     69287     69286     69288     69289     69290
     69289     69291     69292     69293     69292     69294     69295     69296
     69295     69297     69298     69299     69298     69300     69301     69302
     69301     69303     69304     69305     69304     69306     69307     69308
     69307     69309     69310     69311     69310     69312     69313     69314
     69313     69315     69316     69317     69316     69318     69319     69320
     69319     69321     69322     69323     69322     69324     69325     69326
     69325     69327     69328     69329     69328     69330     69331     69332
     69331     69333     69334     69335     69334     69336     69337     69338
     69337     69339     69340     69341     69340     69342     69343     69344
     69343     69345     69346     69347     69346     69348     69349     69350
     69349     69351     69352     69353     69352     69354     69355     69356
     69355     69357     69358     69359     69358     69360     69361     69362
     69361     69363     69364     69365     69364     69366     69367     69368
     69367     69369     69370     69371     69370     69372     69373     69374
     69373     69375     69376     69377     69376     69378     69379     69380
     69379     69381     69382     69383     69382     69384     69385     69386
     69385     69387     69388     69389     69388     69390     69391     69392
     69391     69393     69394     69395     69394     69396     69397     69398
     69397     69399     69400     69401     69400     69402     69403     69404
     69403     69405     69406     69407     69406     69408     69409     69410
     69409     69411     69412     69413     69412     69414     69415     69416
     69415     69417     69418     69419     69418     69420     69421     69422
     69421     69423     69424     69425     69424     69426     69427     69428
     69427     69429     69430     69431     69430     69432     69433     69434
     69433     69435     69436     69437     69436     69438     69439     69440
     69439     69441     69442     69443     69442     69444     69445     69446
     69445     69447     69448     69449     69448     69450     69451     69452
     69451     69453     69454     69455     69454     69456     69457     69458
     69457     69459     69460     69461     69460     69462     69463     69464
     69463     69465     69466     69467     69466     69468     69469     69470
     69469     69471     69472     69473     69472     69474     69475     69476
     69475     69477     69478     69479     69478     69480     69481     69482
     69481     69483     69484     69485     69484     69486     69487     69488
     69487     69489     69490     69491     69490     69492     69493     69494
     69493     69495     69496     69497     69496     69498     69499     69500
     69499     69501     69502     69503     69502     69504     69505     69506
     69505     69507     69508     69509     69508     69510     69511     69512
     69511     69513     69514     69515     69514     69516     69517     69518
     69517     69519     69520     69521     69520     69522     69523     69524
     69523     69525     69526     69527     69526     69528     69529     69530
     69529     69531     69532     69533     69532     69534     69535     69536
     69535     69537     69538     69539     69538     69540     69541     69542
     69541     69543     69544     69545     69544     69546     69547     69548
     69547     69549     69550     69551     69550     69552     69553     69554
     69553     69555     69556     69557     69556     69558     69559     69560
     69559     69561     69562     69563     69562     69564     69565     69566
     69565     69567     69568     69569     69568     69570     69571     69572
     69571     69573     69574     69575     69574     69576     69577     69578
     69577     69579     69580     69581     69580     69582     69583     69584
     69583     69585     69586     69587     69586     69588     69589     69590
     69589     69591     69592     69593     69592     69594     69595     69596
     69595     69597     69598     69599     69598     69600     69601     69602
     69601     69603     69604     69605     69604     69606     69607     69608
     69607     69609     69610     69611     69610     69612     69613     69614
     69613     69615     69616     69617     69616     69618     69619     69620
     69619     69621     69622     69623     69622     69624     69625     69626
     69625     69627     69628     69629     69628     69630     69631     69632
     69631     69633     69634     69635     69634     69636     69637     69638
     69637     69639     69640     69641     69640     69642     69643     69644
     69643     69645     69646     69647     69646     69648     69649     69650
     69649     69651     69652     69653     69652     69654     69655     69656
     69655     69657     69658     69659     69658     69660     69661     69662
     69661     69663     69664     69665     69664     69666     69667     69668
     69667     69669     69670     69671     69670     69672     69673     69674
     69673     69675     69676     69677     69676     69678     69679     69680
     69679     69681     69682     69683     69682     69684     69685     69686
     69685     69687     69688     69689     69688     69690     69691     69692
     69691     69693     69694     69695     69694     69696     69697     69698
     69697     69699     69700     69701     69700     69702     69703     69704
     69703     69705     69706     69707     69706     69708     69709     69710
     69709     69711     69712     69713     69712     69714     69715     69716
     69715     69717     69718     69719     69718     69720     69721     69722
     69721     69723     69724     69725     69724     69726     69727     69728
     69727     69729     69730     69731     69730     69732     69733     69734
     69733     69735     69736     69737     69736     69738     69739     69740
     69739     69741     69742     69743     69742     69744     69745     69746
     69745     69747     69748     69749     69748     69750     69751     69752
     69751     69753     69754     69755     69754     69756     69757     69758
     69757     69759     69760     69761     69760     69762     69763     69764
     69763     69765     69766     69767     69766     69768     69769     69770
     69769     69771     69772     69773     69772     69774     69775     69776
     69775     69777     69778     69779     69778     69780     69781     69782
     69781     69783     69784     69785     69784     69786     69787     69788
     69787     69789     69790     69791     69790     69792     69793     69794
     69793     69795     69796     69797     69796     69798     69799     69800
     69799     69801     69802     69803     69802     69804     69805     69806
     69805     69807     69808     69809     69808     69810     69811     69812
     69811     69813     69814     69815     69814     69816     69817     69818
     69817     69819     69820     69821     69820     69822     69823     69824
     69823     69825     69826     69827     69826     69828     69829     69830
     69829     69831     69832     69833     69832     69834     69835     69836
     69835     69837     69838     69839     69838     69840     69841     69842
     69841     69843     69844     69845     69844     69846     69847     69848
     69847     69849     69850     69851     69850     69852     69853     69854
     69853     69855     69856     69857     69856     69858     69859     69860
     69859     69861     69862     69863     69862     69864     69865     69866
     69865     69867     69868     69869     69868     69870     69871     69872
     69871     69873     69874     69875     69874     69876     69877     69878
     69877     69879     69880     69881     69880     69882     69883     69884
     69883     69885     69886     69887     69886     69888     69889     69890
     69889     69891     69892     69893     69892     69894     69895     69896
     69895     69897     69898     69899     69898     69900     69901     69902
     69901     69903     69904     69905     69904     69906     69907     69908
     69907     69909     69910     69911     69910     69912     69913     69914
     69913     69915     69916     69917     69916     69918     69919     69920
     69919     69921     69922     69923     69922     69924     69925     69926
     69925     69927     69928     69929     69928     69930     69931     69932
     69931     69933     69934     69935     69934     69936     69937     69938
     69937     69939     69940     69941     69940     69942     69943     69944
     69943     69945     69946     69947     69946     69948     69949     69950
     69949     69951     69952     69953     69952     69954     69955     69956
     69955     69957     69958     69959     69958     69960     69961     69962
     69961     69963     69964     69965     69964     69966     69967     69968
     69967     69969     69970     69971     69970     69972     69973     69974
     69973     69975     69976     69977     69976     69978     69979     69980
     69979     69981     69982     69983     69982     69984     69985     69986
     69985     69987     69988     69989     69988     69990     69991     69992
     69991     69993     69994     69995     69994     69996     69997     69998
     69997     69999     70000     70001     70000     70002     70003     70004
     70003     70005     70006     70007     70006     70008     70009     70010
     70009     70011     70012     70013     70012     70014     70015     70016
     70015     70017     70018     70019     70018     70020     70021     70022
     70021     70023     70024     70025     70024     70026     70027     70028
     70027     70029     70030     70031     70030     70032     70033     70034
     70033     70035     70036     70037     70036     70038     70039     70040
     70039     70041     70042     70043     70042     70044     70045     70046
     70045     70047     70048     70049     70048     70050     70051     70052
     70051     70053     70054     70055     70054     70056     70057     70058
     70057     70059     70060     70061     70060     70062     70063     70064
     70063     70065     70066     70067     70066     70068     70069     70070
     70069     70071     70072     70073     70072     70074     70075     70076
     70075     70077     70078     70079     70078     70080     70081     70082
     70081     70083     70084     70085     70084     70086     70087     70088
     70087     70089     70090     70091     70090     70092     70093     70094
     70093     70095     70096     70097     70096     70098     70099     70100
     70099     70101     70102     70103     70102     70104     70105     70106
     70105     70107     70108     70109     70108     70110     70111     70112
     70111     70113     70114     70115     70114     70116     70117     70118
     70117     70119     70120     70121     70120     70122     70123     70124
     70123     70125     70126     70127     70126     70128     70129     70130
     70129     70131     70132     70133     70132     70134     70135     70136
     70135     70137     70138     70139     70138     70140     70141     70142
     70141     70143     70144     70145     70144     70146     70147     70148
     70147     70149     70150     70151     70150     70152     70153     70154
     70153     70155     70156     70157     70156     70158     70159     70160
     70159     70161     70162     70163     70162     70164     70165     70166
     70165     70167     70168     70169     70168     70170     70171     70172
     70171     70173     70174     70175     70174     70176     70177     70178
     70177     70179     70180     70181     70180     70182     70183     70184
     70183     70185     70186     70187     70186     70188     70189     70190
     70189     70191     70192     70193     70192     70194     70195     70196
     70195     70197     70198     70199     70198     70200     70201     70202
     70201     70203     70204     70205     70204     70206     70207     70208
     70207     70209     70210     70211     70210     70212     70213     70214
     70213     70215     70216     70217     70216     70218     70219     70220
     70219     70221     70222     70223     70222     70224     70225     70226
     70225     70227     70228     70229     70228     70230     70231     70232
     70231     70233     70234     70235     70234     70236     70237     70238
     70237     70239     70240     70241     70240     70242     70243     70244
     70243     70245     70246     70247     70246     70248     70249     70250
     70249     70251     70252     70253     70252     70254     70255     70256
     70255     70257     70258     70259     70258     70260     70261     70262
     70261     70263     70264     70265     70264     70266     70267     70268
     70267     70269     70270     70271     70270     70272     70273     70274
     70273     70275     70276     70277     70276     70278     70279     70280
     70279     70281     70282     70283     70282     70284     70285     70286
     70285     70287     70288     70289     70288     70290     70291     70292
     70291     70293     70294     70295     70294     70296     70297     70298
     70297     70299     70300     70301     70300     70302     70303     70304
     70303     70305     70306     70307     70306     70308     70309     70310
     70309     70311     70312     70313     70312     70314     70315     70316
     70315     70317     70318     70319     70318     70320     70321     70322
     70321     70323     70324     70325     70324     70326     70327     70328
     70327     70329     70330     70331     70330     70332     70333     70334
     70333     70335     70336     70337     70336     70338     70339     70340
     70339     70341     70342     70343     70342     70344     70345     70346
     70345     70347     70348     70349     70348     70350     70351     70352
     70351     70353     70354     70355     70354     70356     70357     70358
     70357     70359     70360     70361     70360     70362     70363     70364
     70363     70365     70366     70367     70366     70368     70369     70370
     70369     70371     70372     70373     70372     70374     70375     70376
     70375     70377     70378     70379     70378     70380     70381     70382
     70381     70383     70384     70385     70384     70386     70387     70388
     70387     70389     70390     70391     70390     70392     70393     70394
     70393     70395     70396     70397     70396     70398     70399     70400
     70399     70401     70402     70403     70402     70404     70405     70406
     70405     70407     70408     70409     70408     70410     70411     70412
     70411     70413     70414     70415     70414     70416     70417     70418
     70417     70419     70420     70421     70420     70422     70423     70424
     70423     70425     70426     70427     70426     70428     70429     70430
     70429     70431     70432     70433     70432     70434     70435     70436
     70435     70437     70438     70439     70438     70440     70441     70442
     70441     70443     70444     70445     70444     70446     70447     70448
     70447     70449     70450     70451     70450     70452     70453     70454
     70453     70455     70456     70457     70456     70458     70459     70460
     70459     70461     70462     70463     70462     70464     70465     70466
     70465     70467     70468     70469     70468     70470     70471     70472
     70471     70473     70474     70475     70474     70476     70477     70478
     70477     70479     70480     70481     70480     70482     70483     70484
     70483     70485     70486     70487     70486     70488     70489     70490
     70489     70491     70492     70493     70492     70494     70495     70496
     70495     70497     70498     70499     70498     70500     70501     70502
     70501     70503     70504     70505     70504     70506     70507     70508
     70507     70509     70510     70511     70510     70512     70513     70514
     70513     70515     70516     70517     70516     70518     70519     70520
     70519     70521     70522     70523     70522     70524     70525     70526
     70525     70527     70528     70529     70528     70530     70531     70532
     70531     70533     70534     70535     70534     70536     70537     70538
     70537     70539     70540     70541     70540     70542     70543     70544
     70543     70545     70546     70547     70546     70548     70549     70550
     70549     70551     70552     70553     70552     70554     70555     70556
     70555     70557     70558     70559     70558     70560     70561     70562
     70561     70563     70564     70565     70564     70566     70567     70568
     70567     70569     70570     70571     70570     70572     70573     70574
     70573     70575     70576     70577     70576     70578     70579     70580
     70579     70581     70582     70583     70582     70584     70585     70586
     70585     70587     70588     70589     70588     70590     70591     70592
     70591     70593     70594     70595     70594     70596     70597     70598
     70597     70599     70600     70601     70600     70602     70603     70604
     70603     70605     70606     70607     70606     70608     70609     70610
     70609     70611     70612     70613     70612     70614     70615     70616
     70615     70617     70618     70619     70618     70620     70621     70622
     70621     70623     70624     70625     70624     70626     70627     70628
     70627     70629     70630     70631     70630     70632     70633     70634
     70633     70635     70636     70637     70636     70638     70639     70640
     70639     70641     70642     70643     70642     70644     70645     70646
     70645     70647     70648     70649     70648     70650     70651     70652
     70651     70653     70654     70655     70654     70656     70657     70658
     70657     70659     70660     70661     70660     70662     70663     70664
     70663     70665     70666     70667     70666     70668     70669     70670
     70669     70671     70672     70673     70672     70674     70675     70676
     70675     70677     70678     70679     70678     70680     70681     70682
     70681     70683     70684     70685     70684     70686     70687     70688
     70687     70689

   24973 !NTHETA: angles
         1         8        12         1         8        10         1         8         9
         1         7         5         1         3         4         2         1         8
         2         1         7         3         1         8         3         1         7
         3         1         2         5        18        21         5        18        20
         5        18        19         6         5         7         6         5        18
         7         1         8         8        12        15         8        12        14
         8        12        13         8        10        11         9         8        12
         9         8        10        10         8        12        12        15         5
        12        15        17        12        15        16        13        12        15
        13        12        14        14        79        84        14        79        83
        14        79        80        14        12        15        15         5         7
        15         5        18        15         5         6        16        15         5
        16        15        17        17        22        27        17        22        26
        17        22        23        17        15         5        18         5         7
        19        18        21        19        18        20        20        18        21
        22        27        30        22        27        29        22        27        28
        22        26        24        22        17        15        23        22        27
        23        22        26        24        37        40        24        37        39
        24        37        38        25        24        26        25        24        37
        26        22        27        27        30        33        27        30        32
        27        30        31        28        27        30        28        27        29
        29        42        47        29        42        46        29        42        43
        29        27        30        30        33        24        30        33        35
        30        33        34        31        30        33        31        30        32
        32        71        73        32        71        72        32        71        70
        32        30        33        33        35        36        33        24        26
        33        24        37        33        24        25        34        33        24
        34        33        35        35        33        24        37        40        41
        37        24        26        38        37        40        38        37        39
        39        37        40        42        47        51        42        47        49
        42        47        48        42        46        44        42        29        27
        43        42        47        43        42        46        44        59        62
        44        59        61        44        59        60        45        44        46
        45        44        59        46        42        47        47        51        55
        47        51        53        47        51        52        47        49        50
        48        47        51        48        47        49        49        47        51
        51        55        44        51        55        57        51        55        56
        51        53        54        52        51        55        52        51        53
        53        51        55        55        57        58        55        44        46
        55        44        59        55        44        45        56        55        44
        56        55        57        57        55        44        59        44        46
        60        59        62        60        59        61        61        59        62
        63        68        74        63        68        70        63        68        69
        63        66        67        64        63        68        64        63        65
        65        63        68        66        63        68        66        63        65
        66        63        64        68        74        76        68        74        77
        68        74        75        68        70        71        69        68        74
        69        68        70        70        71        73        70        71        72
        70        68        74        71        32        30        72        71        73
        74        77        78        75        74        76        75        74        77
        77        74        76        79        84        88        79        84        86
        79        84        85        79        83        81        79        14        12
        80        79        84        80        79        83        81        95        98
        81        95        97        81        95        96        82        81        83
        82        81        95        83        79        84        84        88        92
        84        88        90        84        88        89        84        86        87
        85        84        88        85        84        86        86        84        88
        88        92        81        88        92        94        88        92        93
        88        90        91        89        88        92        89        88        90
        90        88        92        92        81        83        92        81        95
        92        81        82        93        92        81        93        92        94
        94       100       105        94       100       104        94       100       101
        94        92        81        95        98        99        95        81        83
        96        95        98        96        95        97        97        95        98
       100       105       109       100       105       107       100       105       106
       100       104       102       100        94        92       101       100       105
       101       100       104       102       115       118       102       115       117
       102       115       116       103       102       104       103       102       115
       104       100       105       105       109       112       105       109       111
       105       109       110       105       107       108       106       105       109
       106       105       107       107       105       109       109       112       102
       109       112       114       109       112       113       110       109       112
       110       109       111       111       176       181       111       176       180
       111       176       177       111       109       112       112       102       104
       112       102       115       112       102       103       113       112       102
       113       112       114       114       119       124       114       119       123
       114       119       120       114       112       102       115       102       104
       116       115       118       116       115       117       117       115       118
       119       124       127       119       124       126       119       124       125
       119       123       121       119       114       112       120       119       124
       120       119       123       121       134       137       121       134       136
       121       134       135       122       121       123       122       121       134
       123       119       124       124       127       130       124       127       129
       124       127       128       125       124       127       125       124       126
       126       139       144       126       139       143       126       139       140
       126       124       127       127       130       121       127       130       132
       127       130       131       128       127       130       128       127       129
       129       168       170       129       168       169       129       168       167
       129       127       130       130       132       133       130       121       123
       130       121       134       130       121       122       131       130       121
       131       130       132       132       130       121       134       137       138
       134       121       123       135       134       137       135       134       136
       136       134       137       139       144       148       139       144       146
       139       144       145       139       143       141       139       126       124
       140       139       144       140       139       143       141       156       159
       141       156       158       141       156       157       142       141       143
       142       141       156       143       139       144       144       148       152
       144       148       150       144       148       149       144       146       147
       145       144       148       145       144       146       146       144       148
       148       152       141       148       152       154       148       152       153
       148       150       151       149       148       152       149       148       150
       150       148       152       152       154       155       152       141       143
       152       141       156       152       141       142       153       152       141
       153       152       154       154       152       141       156       141       143
       157       156       159       157       156       158       158       156       159
       160       165       171       160       165       167       160       165       166
       160       163       164       161       160       165       161       160       162
       162       160       165       163       160       165       163       160       162
       163       160       161       165       171       173       165       171       174
       165       171       172       165       167       168       166       165       171
       166       165       167       167       168       170       167       168       169
       167       165       171       168       129       127       169       168       170
       171       174       175       172       171       173       172       171       174
       174       171       173       176       181       185       176       181       183
       176       181       182       176       180       178       176       111       109
       177       176       181       177       176       180       178       192       195
       178       192       194       178       192       193       179       178       180
       179       178       192       180       176       181       181       185       189
       181       185       187       181       185       186       181       183       184
       182       181       185       182       181       183       183       181       185
       185       189       178       185       189       191       185       189       190
       185       187       188       186       185       189       186       185       187
       187       185       189       189       178       180       189       178       192
       189       178       179       190       189       178       190       189       191
       191       197       202       191       197       201       191       197       198
       191       189       178       192       195       196       192       178       180
       193       192       195       193       192       194       194       192       195
       197       202       206       197       202       204       197       202       203
       197       201       199       197       191       189       198       197       202
       198       197       201       199       212       215       199       212       214
       199       212       213       200       199       201       200       199       212
       201       197       202       202       206       209       202       206       208
       202       206       207       202       204       205       203       202       206
       203       202       204       204       202       206       206       209       199
       206       209       211       206       209       210       207       206       209
       207       206       208       208       273       278       208       273       277
       208       273       274       208       206       209       209       199       201
       209       199       212       209       199       200       210       209       199
       210       209       211       211       216       221       211       216       220
       211       216       217       211       209       199       212       199       201
       213       212       215       213       212       214       214       212       215
       216       221       224       216       221       223       216       221       222
       216       220       218       216       211       209       217       216       221
       217       216       220       218       231       234       218       231       233
       218       231       232       219       218       220       219       218       231
       220       216       221       221       224       227       221       224       226
       221       224       225       222       221       224       222       221       223
       223       236       241       223       236       240       223       236       237
       223       221       224       224       227       218       224       227       229
       224       227       228       225       224       227       225       224       226
       226       265       267       226       265       266       226       265       264
       226       224       227       227       229       230       227       218       220
       227       218       231       227       218       219       228       227       218
       228       227       229       229       227       218       231       234       235
       231       218       220       232       231       234       232       231       233
       233       231       234       236       241       245       236       241       243
       236       241       242       236       240       238       236       223       221
       237       236       241       237       236       240       238       253       256
       238       253       255       238       253       254       239       238       240
       239       238       253       240       236       241       241       245       249
       241       245       247       241       245       246       241       243       244
       242       241       245       242       241       243       243       241       245
       245       249       238       245       249       251       245       249       250
       245       247       248       246       245       249       246       245       247
       247       245       249       249       251       252       249       238       240
       249       238       253       249       238       239       250       249       238
       250       249       251       251       249       238       253       238       240
       254       253       256       254       253       255       255       253       256
       257       262       268       257       262       264       257       262       263
       257       260       261       258       257       262       258       257       259
       259       257       262       260       257       262       260       257       259
       260       257       258       262       268       270       262       268       271
       262       268       269       262       264       265       263       262       268
       263       262       264       264       265       267       264       265       266
       264       262       268       265       226       224       266       265       267
       268       271       272       269       268       270       269       268       271
       271       268       270       273       278       282       273       278       280
       273       278       279       273       277       275       273       208       206
       274       273       278       274       273       277       275       289       292
       275       289       291       275       289       290       276       275       277
       276       275       289       277       273       278       278       282       286
       278       282       284       278       282       283       278       280       281
       279       278       282       279       278       280       280       278       282
       282       286       275       282       286       288       282       286       287
       282       284       285       283       282       286       283       282       284
       284       282       286       286       275       277       286       275       289
       286       275       276       287       286       275       287       286       288
       288       294       299       288       294       298       288       294       295
       288       286       275       289       292       293       289       275       277
       290       289       292       290       289       291       291       289       292
       294       299       303       294       299       301       294       299       300
       294       298       296       294       288       286       295       294       299
       295       294       298       296       309       312       296       309       311
       296       309       310       297       296       298       297       296       309
       298       294       299       299       303       306       299       303       305
       299       303       304       299       301       302       300       299       303
       300       299       301       301       299       303       303       306       296
       303       306       308       303       306       307       304       303       306
       304       303       305       305       370       375       305       370       374
       305       370       371       305       303       306       306       296       298
       306       296       309       306       296       297       307       306       296
       307       306       308       308       313       318       308       313       317
       308       313       314       308       306       296       309       296       298
       310       309       312       310       309       311       311       309       312
       313       318       321       313       318       320       313       318       319
       313       317       315       313       308       306       314       313       318
       314       313       317       315       328       331       315       328       330
       315       328       329       316       315       317       316       315       328
       317       313       318       318       321       324       318       321       323
       318       321       322       319       318       321       319       318       320
       320       333       338       320       333       337       320       333       334
       320       318       321       321       324       315       321       324       326
       321       324       325       322       321       324       322       321       323
       323       362       364       323       362       363       323       362       361
       323       321       324       324       326       327       324       315       317
       324       315       328       324       315       316       325       324       315
       325       324       326       326       324       315       328       331       332
       328       315       317       329       328       331       329       328       330
       330       328       331       333       338       342       333       338       340
       333       338       339       333       337       335       333       320       318
       334       333       338       334       333       337       335       350       353
       335       350       352       335       350       351       336       335       337
       336       335       350       337       333       338       338       342       346
       338       342       344       338       342       343       338       340       341
       339       338       342       339       338       340       340       338       342
       342       346       335       342       346       348       342       346       347
       342       344       345       343       342       346       343       342       344
       344       342       346       346       348       349       346       335       337
       346       335       350       346       335       336       347       346       335
       347       346       348       348       346       335       350       335       337
       351       350       353       351       350       352       352       350       353
       354       359       365       354       359       361       354       359       360
       354       357       358       355       354       359       355       354       356
       356       354       359       357       354       359       357       354       356
       357       354       355       359       365       367       359       365       368
       359       365       366       359       361       362       360       359       365
       360       359       361       361       362       364       361       362       363
       361       359       365       362       323       321       363       362       364
       365       368       369       366       365       367       366       365       368
       368       365       367       370       375       379       370       375       377
       370       375       376       370       374       372       370       305       303
       371       370       375       371       370       374       372       386       389
       372       386       388       372       386       387       373       372       374
       373       372       386       374       370       375       375       379       383
       375       379       381       375       379       380       375       377       378
       376       375       379       376       375       377       377       375       379
       379       383       372       379       383       385       379       383       384
       379       381       382       380       379       383       380       379       381
       381       379       383       383       372       374       383       372       386
       383       372       373       384       383       372       384       383       385
       385       391       396       385       391       395       385       391       392
       385       383       372       386       389       390       386       372       374
       387       386       389       387       386       388       388       386       389
       391       396       400       391       396       398       391       396       397
       391       395       393       391       385       383       392       391       396
       392       391       395       393       406       409       393       406       408
       393       406       407       394       393       395       394       393       406
       395       391       396       396       400       403       396       400       402
       396       400       401       396       398       399       397       396       400
       397       396       398       398       396       400       400       403       393
       400       403       405       400       403       404       401       400       403
       401       400       402       402       467       472       402       467       471
       402       467       468       402       400       403       403       393       395
       403       393       406       403       393       394       404       403       393
       404       403       405       405       410       415       405       410       414
       405       410       411       405       403       393       406       393       395
       407       406       409       407       406       408       408       406       409
       410       415       418       410       415       417       410       415       416
       410       414       412       410       405       403       411       410       415
       411       410       414       412       425       428       412       425       427
       412       425       426       413       412       414       413       412       425
       414       410       415       415       418       421       415       418       420
       415       418       419       416       415       418       416       415       417
       417       430       435       417       430       434       417       430       431
       417       415       418       418       421       412       418       421       423
       418       421       422       419       418       421       419       418       420
       420       459       461       420       459       460       420       459       458
       420       418       421       421       423       424       421       412       414
       421       412       425       421       412       413       422       421       412
       422       421       423       423       421       412       425       428       429
       425       412       414       426       425       428       426       425       427
       427       425       428       430       435       439       430       435       437
       430       435       436       430       434       432       430       417       415
       431       430       435       431       430       434       432       447       450
       432       447       449       432       447       448       433       432       434
       433       432       447       434       430       435       435       439       443
       435       439       441       435       439       440       435       437       438
       436       435       439       436       435       437       437       435       439
       439       443       432       439       443       445       439       443       444
       439       441       442       440       439       443       440       439       441
       441       439       443       443       445       446       443       432       434
       443       432       447       443       432       433       444       443       432
       444       443       445       445       443       432       447       432       434
       448       447       450       448       447       449       449       447       450
       451       456       462       451       456       458       451       456       457
       451       454       455       452       451       456       452       451       453
       453       451       456       454       451       456       454       451       453
       454       451       452       456       462       464       456       462       465
       456       462       463       456       458       459       457       456       462
       457       456       458       458       459       461       458       459       460
       458       456       462       459       420       418       460       459       461
       462       465       466       463       462       464       463       462       465
       465       462       464       467       472       476       467       472       474
       467       472       473       467       471       469       467       402       400
       468       467       472       468       467       471       469       483       486
       469       483       485       469       483       484       470       469       471
       470       469       483       471       467       472       472       476       480
       472       476       478       472       476       477       472       474       475
       473       472       476       473       472       474       474       472       476
       476       480       469       476       480       482       476       480       481
       476       478       479       477       476       480       477       476       478
       478       476       480       480       469       471       480       469       483
       480       469       470       481       480       469       481       480       482
       482       488       493       482       488       492       482       488       489
       482       480       469       483       486       487       483       469       471
       484       483       486       484       483       485       485       483       486
       488       493       497       488       493       495       488       493       494
       488       492       490       488       482       480       489       488       493
       489       488       492       490       503       506       490       503       505
       490       503       504       491       490       492       491       490       503
       492       488       493       493       497       500       493       497       499
       493       497       498       493       495       496       494       493       497
       494       493       495       495       493       497       497       500       490
       497       500       502       497       500       501       498       497       500
       498       497       499       499       564       569       499       564       568
       499       564       565       499       497       500       500       490       492
       500       490       503       500       490       491       501       500       490
       501       500       502       502       507       512       502       507       511
       502       507       508       502       500       490       503       490       492
       504       503       506       504       503       505       505       503       506
       507       512       515       507       512       514       507       512       513
       507       511       509       507       502       500       508       507       512
       508       507       511       509       522       525       509       522       524
       509       522       523       510       509       511       510       509       522
       511       507       512       512       515       518       512       515       517
       512       515       516       513       512       515       513       512       514
       514       527       532       514       527       531       514       527       528
       514       512       515       515       518       509       515       518       520
       515       518       519       516       515       518       516       515       517
       517       556       558       517       556       557       517       556       555
       517       515       518       518       520       521       518       509       511
       518       509       522       518       509       510       519       518       509
       519       518       520       520       518       509       522       525       526
       522       509       511       523       522       525       523       522       524
       524       522       525       527       532       536       527       532       534
       527       532       533       527       531       529       527       514       512
       528       527       532       528       527       531       529       544       547
       529       544       546       529       544       545       530       529       531
       530       529       544       531       527       532       532       536       540
       532       536       538       532       536       537       532       534       535
       533       532       536       533       532       534       534       532       536
       536       540       529       536       540       542       536       540       541
       536       538       539       537       536       540       537       536       538
       538       536       540       540       542       543       540       529       531
       540       529       544       540       529       530       541       540       529
       541       540       542       542       540       529       544       529       531
       545       544       547       545       544       546       546       544       547
       548       553       559       548       553       555       548       553       554
       548       551       552       549       548       553       549       548       550
       550       548       553       551       548       553       551       548       550
       551       548       549       553       559       561       553       559       562
       553       559       560       553       555       556       554       553       559
       554       553       555       555       556       558       555       556       557
       555       553       559       556       517       515       557       556       558
       559       562       563       560       559       561       560       559       562
       562       559       561       564       569       573       564       569       571
       564       569       570       564       568       566       564       499       497
       565       564       569       565       564       568       566       580       583
       566       580       582       566       580       581       567       566       568
       567       566       580       568       564       569       569       573       577
       569       573       575       569       573       574       569       571       572
       570       569       573       570       569       571       571       569       573
       573       577       566       573       577       579       573       577       578
       573       575       576       574       573       577       574       573       575
       575       573       577       577       566       568       577       566       580
       577       566       567       578       577       566       578       577       579
       579       585       590       579       585       589       579       585       586
       579       577       566       580       583       584       580       566       568
       581       580       583       581       580       582       582       580       583
       585       590       594       585       590       592       585       590       591
       585       589       587       585       579       577       586       585       590
       586       585       589       587       600       603       587       600       602
       587       600       601       588       587       589       588       587       600
       589       585       590       590       594       597       590       594       596
       590       594       595       590       592       593       591       590       594
       591       590       592       592       590       594       594       597       587
       594       597       599       594       597       598       595       594       597
       595       594       596       596       661       666       596       661       665
       596       661       662       596       594       597       597       587       589
       597       587       600       597       587       588       598       597       587
       598       597       599       599       604       609       599       604       608
       599       604       605       599       597       587       600       587       589
       601       600       603       601       600       602       602       600       603
       604       609       612       604       609       611       604       609       610
       604       608       606       604       599       597       605       604       609
       605       604       608       606       619       622       606       619       621
       606       619       620       607       606       608       607       606       619
       608       604       609       609       612       615       609       612       614
       609       612       613       610       609       612       610       609       611
       611       624       629       611       624       628       611       624       625
       611       609       612       612       615       606       612       615       617
       612       615       616       613       612       615       613       612       614
       614       653       655       614       653       654       614       653       652
       614       612       615       615       617       618       615       606       608
       615       606       619       615       606       607       616       615       606
       616       615       617       617       615       606       619       622       623
       619       606       608       620       619       622       620       619       621
       621       619       622       624       629       633       624       629       631
       624       629       630       624       628       626       624       611       609
       625       624       629       625       624       628       626       641       644
       626       641       643       626       641       642       627       626       628
       627       626       641       628       624       629       629       633       637
       629       633       635       629       633       634       629       631       632
       630       629       633       630       629       631       631       629       633
       633       637       626       633       637       639       633       637       638
       633       635       636       634       633       637       634       633       635
       635       633       637       637       639       640       637       626       628
       637       626       641       637       626       627       638       637       626
       638       637       639       639       637       626       641       626       628
       642       641       644       642       641       643       643       641       644
       645       650       656       645       650       652       645       650       651
       645       648       649       646       645       650       646       645       647
       647       645       650       648       645       650       648       645       647
       648       645       646       650       656       658       650       656       659
       650       656       657       650       652       653       651       650       656
       651       650       652       652       653       655       652       653       654
       652       650       656       653       614       612       654       653       655
       656       659       660       657       656       658       657       656       659
       659       656       658       661       666       670       661       666       668
       661       666       667       661       665       663       661       596       594
       662       661       666       662       661       665       663       677       680
       663       677       679       663       677       678       664       663       665
       664       663       677       665       661       666       666       670       674
       666       670       672       666       670       671       666       668       669
       667       666       670       667       666       668       668       666       670
       670       674       663       670       674       676       670       674       675
       670       672       673       671       670       674       671       670       672
       672       670       674       674       663       665       674       663       677
       674       663       664       675       674       663       675       674       676
       676       682       687       676       682       686       676       682       683
       676       674       663       677       680       681       677       663       665
       678       677       680       678       677       679       679       677       680
       682       687       691       682       687       689       682       687       688
       682       686       684       682       676       674       683       682       687
       683       682       686       684       697       700       684       697       699
       684       697       698       685       684       686       685       684       697
       686       682       687       687       691       694       687       691       693
       687       691       692       687       689       690       688       687       691
       688       687       689       689       687       691       691       694       684
       691       694       696       691       694       695       692       691       694
       692       691       693       693       758       763       693       758       762
       693       758       759       693       691       694       694       684       686
       694       684       697       694       684       685       695       694       684
       695       694       696       696       701       706       696       701       705
       696       701       702       696       694       684       697       684       686
       698       697       700       698       697       699       699       697       700
       701       706       709       701       706       708       701       706       707
       701       705       703       701       696       694       702       701       706
       702       701       705       703       716       719       703       716       718
       703       716       717       704       703       705       704       703       716
       705       701       706       706       709       712       706       709       711
       706       709       710       707       706       709       707       706       708
       708       721       726       708       721       725       708       721       722
       708       706       709       709       712       703       709       712       714
       709       712       713       710       709       712       710       709       711
       711       750       752       711       750       751       711       750       749
       711       709       712       712       714       715       712       703       705
       712       703       716       712       703       704       713       712       703
       713       712       714       714       712       703       716       719       720
       716       703       705       717       716       719       717       716       718
       718       716       719       721       726       730       721       726       728
       721       726       727       721       725       723       721       708       706
       722       721       726       722       721       725       723       738       741
       723       738       740       723       738       739       724       723       725
       724       723       738       725       721       726       726       730       734
       726       730       732       726       730       731       726       728       729
       727       726       730       727       726       728       728       726       730
       730       734       723       730       734       736       730       734       735
       730       732       733       731       730       734       731       730       732
       732       730       734       734       736       737       734       723       725
       734       723       738       734       723       724       735       734       723
       735       734       736       736       734       723       738       723       725
       739       738       741       739       738       740       740       738       741
       742       747       753       742       747       749       742       747       748
       742       745       746       743       742       747       743       742       744
       744       742       747       745       742       747       745       742       744
       745       742       743       747       753       755       747       753       756
       747       753       754       747       749       750       748       747       753
       748       747       749       749       750       752       749       750       751
       749       747       753       750       711       709       751       750       752
       753       756       757       754       753       755       754       753       756
       756       753       755       758       763       767       758       763       765
       758       763       764       758       762       760       758       693       691
       759       758       763       759       758       762       760       774       777
       760       774       776       760       774       775       761       760       762
       761       760       774       762       758       763       763       767       771
       763       767       769       763       767       768       763       765       766
       764       763       767       764       763       765       765       763       767
       767       771       760       767       771       773       767       771       772
       767       769       770       768       767       771       768       767       769
       769       767       771       771       760       762       771       760       774
       771       760       761       772       771       760       772       771       773
       773       779       784       773       779       783       773       779       780
       773       771       760       774       777       778       774       760       762
       775       774       777       775       774       776       776       774       777
       779       784       788       779       784       786       779       784       785
       779       783       781       779       773       771       780       779       784
       780       779       783       781       794       797       781       794       796
       781       794       795       782       781       783       782       781       794
       783       779       784       784       788       791       784       788       790
       784       788       789       784       786       787       785       784       788
       785       784       786       786       784       788       788       791       781
       788       791       793       788       791       792       789       788       791
       789       788       790       790       855       860       790       855       859
       790       855       856       790       788       791       791       781       783
       791       781       794       791       781       782       792       791       781
       792       791       793       793       798       803       793       798       802
       793       798       799       793       791       781       794       781       783
       795       794       797       795       794       796       796       794       797
       798       803       806       798       803       805       798       803       804
       798       802       800       798       793       791       799       798       803
       799       798       802       800       813       816       800       813       815
       800       813       814       801       800       802       801       800       813
       802       798       803       803       806       809       803       806       808
       803       806       807       804       803       806       804       803       805
       805       818       823       805       818       822       805       818       819
       805       803       806       806       809       800       806       809       811
       806       809       810       807       806       809       807       806       808
       808       847       849       808       847       848       808       847       846
       808       806       809       809       811       812       809       800       802
       809       800       813       809       800       801       810       809       800
       810       809       811       811       809       800       813       816       817
       813       800       802       814       813       816       814       813       815
       815       813       816       818       823       827       818       823       825
       818       823       824       818       822       820       818       805       803
       819       818       823       819       818       822       820       835       838
       820       835       837       820       835       836       821       820       822
       821       820       835       822       818       823       823       827       831
       823       827       829       823       827       828       823       825       826
       824       823       827       824       823       825       825       823       827
       827       831       820       827       831       833       827       831       832
       827       829       830       828       827       831       828       827       829
       829       827       831       831       833       834       831       820       822
       831       820       835       831       820       821       832       831       820
       832       831       833       833       831       820       835       820       822
       836       835       838       836       835       837       837       835       838
       839       844       850       839       844       846       839       844       845
       839       842       843       840       839       844       840       839       841
       841       839       844       842       839       844       842       839       841
       842       839       840       844       850       852       844       850       853
       844       850       851       844       846       847       845       844       850
       845       844       846       846       847       849       846       847       848
       846       844       850       847       808       806       848       847       849
       850       853       854       851       850       852       851       850       853
       853       850       852       855       860       864       855       860       862
       855       860       861       855       859       857       855       790       788
       856       855       860       856       855       859       857       872       875
       857       872       874       857       872       873       858       857       859
       858       857       872       859       855       860       860       864       868
       860       864       866       860       864       865       860       862       863
       861       860       864       861       860       862       862       860       864
       864       868       857       864       868       870       864       868       869
       864       866       867       865       864       868       865       864       866
       866       864       868       868       870       871       868       857       859
       868       857       872       868       857       858       869       868       857
       869       868       870       870       868       857       872       875       876
       872       857       859       873       872       875       873       872       874
       874       872       875       878       877       879       881       880       882
       884       883       885       887       886       888       890       889       891
       893       892       894       896       895       897       899       898       900
       902       901       903       905       904       906       908       907       909
       911       910       912       914       913       915       917       916       918
       920       919       921       923       922       924       926       925       927
       929       928       930       932       931       933       935       934       936
       938       937       939       941       940       942       944       943       945
       947       946       948       950       949       951       953       952       954
       956       955       957       959       958       960       962       961       963
       965       964       966       968       967       969       971       970       972
       974       973       975       977       976       978       980       979       981
       983       982       984       986       985       987       989       988       990
       992       991       993       995       994       996       998       997       999
      1001      1000      1002      1004      1003      1005      1007      1006      1008
      1010      1009      1011      1013      1012      1014      1016      1015      1017
      1019      1018      1020      1022      1021      1023      1025      1024      1026
      1028      1027      1029      1031      1030      1032      1034      1033      1035
      1037      1036      1038      1040      1039      1041      1043      1042      1044
      1046      1045      1047      1049      1048      1050      1052      1051      1053
      1055      1054      1056      1058      1057      1059      1061      1060      1062
      1064      1063      1065      1067      1066      1068      1070      1069      1071
      1073      1072      1074      1076      1075      1077      1079      1078      1080
      1082      1081      1083      1085      1084      1086      1088      1087      1089
      1091      1090      1092      1094      1093      1095      1097      1096      1098
      1100      1099      1101      1103      1102      1104      1106      1105      1107
      1109      1108      1110      1112      1111      1113      1115      1114      1116
      1118      1117      1119      1121      1120      1122      1124      1123      1125
      1127      1126      1128      1130      1129      1131      1133      1132      1134
      1136      1135      1137      1139      1138      1140      1142      1141      1143
      1145      1144      1146      1148      1147      1149      1151      1150      1152
      1154      1153      1155      1157      1156      1158      1160      1159      1161
      1163      1162      1164      1166      1165      1167      1169      1168      1170
      1172      1171      1173      1175      1174      1176      1178      1177      1179
      1181      1180      1182      1184      1183      1185      1187      1186      1188
      1190      1189      1191      1193      1192      1194      1196      1195      1197
      1199      1198      1200      1202      1201      1203      1205      1204      1206
      1208      1207      1209      1211      1210      1212      1214      1213      1215
      1217      1216      1218      1220      1219      1221      1223      1222      1224
      1226      1225      1227      1229      1228      1230      1232      1231      1233
      1235      1234      1236      1238      1237      1239      1241      1240      1242
      1244      1243      1245      1247      1246      1248      1250      1249      1251
      1253      1252      1254      1256      1255      1257      1259      1258      1260
      1262      1261      1263      1265      1264      1266      1268      1267      1269
      1271      1270      1272      1274      1273      1275      1277      1276      1278
      1280      1279      1281      1283      1282      1284      1286      1285      1287
      1289      1288      1290      1292      1291      1293      1295      1294      1296
      1298      1297      1299      1301      1300      1302      1304      1303      1305
      1307      1306      1308      1310      1309      1311      1313      1312      1314
      1316      1315      1317      1319      1318      1320      1322      1321      1323
      1325      1324      1326      1328      1327      1329      1331      1330      1332
      1334      1333      1335      1337      1336      1338      1340      1339      1341
      1343      1342      1344      1346      1345      1347      1349      1348      1350
      1352      1351      1353      1355      1354      1356      1358      1357      1359
      1361      1360      1362      1364      1363      1365      1367      1366      1368
      1370      1369      1371      1373      1372      1374      1376      1375      1377
      1379      1378      1380      1382      1381      1383      1385      1384      1386
      1388      1387      1389      1391      1390      1392      1394      1393      1395
      1397      1396      1398      1400      1399      1401      1403      1402      1404
      1406      1405      1407      1409      1408      1410      1412      1411      1413
      1415      1414      1416      1418      1417      1419      1421      1420      1422
      1424      1423      1425      1427      1426      1428      1430      1429      1431
      1433      1432      1434      1436      1435      1437      1439      1438      1440
      1442      1441      1443      1445      1444      1446      1448      1447      1449
      1451      1450      1452      1454      1453      1455      1457      1456      1458
      1460      1459      1461      1463      1462      1464      1466      1465      1467
      1469      1468      1470      1472      1471      1473      1475      1474      1476
      1478      1477      1479      1481      1480      1482      1484      1483      1485
      1487      1486      1488      1490      1489      1491      1493      1492      1494
      1496      1495      1497      1499      1498      1500      1502      1501      1503
      1505      1504      1506      1508      1507      1509      1511      1510      1512
      1514      1513      1515      1517      1516      1518      1520      1519      1521
      1523      1522      1524      1526      1525      1527      1529      1528      1530
      1532      1531      1533      1535      1534      1536      1538      1537      1539
      1541      1540      1542      1544      1543      1545      1547      1546      1548
      1550      1549      1551      1553      1552      1554      1556      1555      1557
      1559      1558      1560      1562      1561      1563      1565      1564      1566
      1568      1567      1569      1571      1570      1572      1574      1573      1575
      1577      1576      1578      1580      1579      1581      1583      1582      1584
      1586      1585      1587      1589      1588      1590      1592      1591      1593
      1595      1594      1596      1598      1597      1599      1601      1600      1602
      1604      1603      1605      1607      1606      1608      1610      1609      1611
      1613      1612      1614      1616      1615      1617      1619      1618      1620
      1622      1621      1623      1625      1624      1626      1628      1627      1629
      1631      1630      1632      1634      1633      1635      1637      1636      1638
      1640      1639      1641      1643      1642      1644      1646      1645      1647
      1649      1648      1650      1652      1651      1653      1655      1654      1656
      1658      1657      1659      1661      1660      1662      1664      1663      1665
      1667      1666      1668      1670      1669      1671      1673      1672      1674
      1676      1675      1677      1679      1678      1680      1682      1681      1683
      1685      1684      1686      1688      1687      1689      1691      1690      1692
      1694      1693      1695      1697      1696      1698      1700      1699      1701
      1703      1702      1704      1706      1705      1707      1709      1708      1710
      1712      1711      1713      1715      1714      1716      1718      1717      1719
      1721      1720      1722      1724      1723      1725      1727      1726      1728
      1730      1729      1731      1733      1732      1734      1736      1735      1737
      1739      1738      1740      1742      1741      1743      1745      1744      1746
      1748      1747      1749      1751      1750      1752      1754      1753      1755
      1757      1756      1758      1760      1759      1761      1763      1762      1764
      1766      1765      1767      1769      1768      1770      1772      1771      1773
      1775      1774      1776      1778      1777      1779      1781      1780      1782
      1784      1783      1785      1787      1786      1788      1790      1789      1791
      1793      1792      1794      1796      1795      1797      1799      1798      1800
      1802      1801      1803      1805      1804      1806      1808      1807      1809
      1811      1810      1812      1814      1813      1815      1817      1816      1818
      1820      1819      1821      1823      1822      1824      1826      1825      1827
      1829      1828      1830      1832      1831      1833      1835      1834      1836
      1838      1837      1839      1841      1840      1842      1844      1843      1845
      1847      1846      1848      1850      1849      1851      1853      1852      1854
      1856      1855      1857      1859      1858      1860      1862      1861      1863
      1865      1864      1866      1868      1867      1869      1871      1870      1872
      1874      1873      1875      1877      1876      1878      1880      1879      1881
      1883      1882      1884      1886      1885      1887      1889      1888      1890
      1892      1891      1893      1895      1894      1896      1898      1897      1899
      1901      1900      1902      1904      1903      1905      1907      1906      1908
      1910      1909      1911      1913      1912      1914      1916      1915      1917
      1919      1918      1920      1922      1921      1923      1925      1924      1926
      1928      1927      1929      1931      1930      1932      1934      1933      1935
      1937      1936      1938      1940      1939      1941      1943      1942      1944
      1946      1945      1947      1949      1948      1950      1952      1951      1953
      1955      1954      1956      1958      1957      1959      1961      1960      1962
      1964      1963      1965      1967      1966      1968      1970      1969      1971
      1973      1972      1974      1976      1975      1977      1979      1978      1980
      1982      1981      1983      1985      1984      1986      1988      1987      1989
      1991      1990      1992      1994      1993      1995      1997      1996      1998
      2000      1999      2001      2003      2002      2004      2006      2005      2007
      2009      2008      2010      2012      2011      2013      2015      2014      2016
      2018      2017      2019      2021      2020      2022      2024      2023      2025
      2027      2026      2028      2030      2029      2031      2033      2032      2034
      2036      2035      2037      2039      2038      2040      2042      2041      2043
      2045      2044      2046      2048      2047      2049      2051      2050      2052
      2054      2053      2055      2057      2056      2058      2060      2059      2061
      2063      2062      2064      2066      2065      2067      2069      2068      2070
      2072      2071      2073      2075      2074      2076      2078      2077      2079
      2081      2080      2082      2084      2083      2085      2087      2086      2088
      2090      2089      2091      2093      2092      2094      2096      2095      2097
      2099      2098      2100      2102      2101      2103      2105      2104      2106
      2108      2107      2109      2111      2110      2112      2114      2113      2115
      2117      2116      2118      2120      2119      2121      2123      2122      2124
      2126      2125      2127      2129      2128      2130      2132      2131      2133
      2135      2134      2136      2138      2137      2139      2141      2140      2142
      2144      2143      2145      2147      2146      2148      2150      2149      2151
      2153      2152      2154      2156      2155      2157      2159      2158      2160
      2162      2161      2163      2165      2164      2166      2168      2167      2169
      2171      2170      2172      2174      2173      2175      2177      2176      2178
      2180      2179      2181      2183      2182      2184      2186      2185      2187
      2189      2188      2190      2192      2191      2193      2195      2194      2196
      2198      2197      2199      2201      2200      2202      2204      2203      2205
      2207      2206      2208      2210      2209      2211      2213      2212      2214
      2216      2215      2217      2219      2218      2220      2222      2221      2223
      2225      2224      2226      2228      2227      2229      2231      2230      2232
      2234      2233      2235      2237      2236      2238      2240      2239      2241
      2243      2242      2244      2246      2245      2247      2249      2248      2250
      2252      2251      2253      2255      2254      2256      2258      2257      2259
      2261      2260      2262      2264      2263      2265      2267      2266      2268
      2270      2269      2271      2273      2272      2274      2276      2275      2277
      2279      2278      2280      2282      2281      2283      2285      2284      2286
      2288      2287      2289      2291      2290      2292      2294      2293      2295
      2297      2296      2298      2300      2299      2301      2303      2302      2304
      2306      2305      2307      2309      2308      2310      2312      2311      2313
      2315      2314      2316      2318      2317      2319      2321      2320      2322
      2324      2323      2325      2327      2326      2328      2330      2329      2331
      2333      2332      2334      2336      2335      2337      2339      2338      2340
      2342      2341      2343      2345      2344      2346      2348      2347      2349
      2351      2350      2352      2354      2353      2355      2357      2356      2358
      2360      2359      2361      2363      2362      2364      2366      2365      2367
      2369      2368      2370      2372      2371      2373      2375      2374      2376
      2378      2377      2379      2381      2380      2382      2384      2383      2385
      2387      2386      2388      2390      2389      2391      2393      2392      2394
      2396      2395      2397      2399      2398      2400      2402      2401      2403
      2405      2404      2406      2408      2407      2409      2411      2410      2412
      2414      2413      2415      2417      2416      2418      2420      2419      2421
      2423      2422      2424      2426      2425      2427      2429      2428      2430
      2432      2431      2433      2435      2434      2436      2438      2437      2439
      2441      2440      2442      2444      2443      2445      2447      2446      2448
      2450      2449      2451      2453      2452      2454      2456      2455      2457
      2459      2458      2460      2462      2461      2463      2465      2464      2466
      2468      2467      2469      2471      2470      2472      2474      2473      2475
      2477      2476      2478      2480      2479      2481      2483      2482      2484
      2486      2485      2487      2489      2488      2490      2492      2491      2493
      2495      2494      2496      2498      2497      2499      2501      2500      2502
      2504      2503      2505      2507      2506      2508      2510      2509      2511
      2513      2512      2514      2516      2515      2517      2519      2518      2520
      2522      2521      2523      2525      2524      2526      2528      2527      2529
      2531      2530      2532      2534      2533      2535      2537      2536      2538
      2540      2539      2541      2543      2542      2544      2546      2545      2547
      2549      2548      2550      2552      2551      2553      2555      2554      2556
      2558      2557      2559      2561      2560      2562      2564      2563      2565
      2567      2566      2568      2570      2569      2571      2573      2572      2574
      2576      2575      2577      2579      2578      2580      2582      2581      2583
      2585      2584      2586      2588      2587      2589      2591      2590      2592
      2594      2593      2595      2597      2596      2598      2600      2599      2601
      2603      2602      2604      2606      2605      2607      2609      2608      2610
      2612      2611      2613      2615      2614      2616      2618      2617      2619
      2621      2620      2622      2624      2623      2625      2627      2626      2628
      2630      2629      2631      2633      2632      2634      2636      2635      2637
      2639      2638      2640      2642      2641      2643      2645      2644      2646
      2648      2647      2649      2651      2650      2652      2654      2653      2655
      2657      2656      2658      2660      2659      2661      2663      2662      2664
      2666      2665      2667      2669      2668      2670      2672      2671      2673
      2675      2674      2676      2678      2677      2679      2681      2680      2682
      2684      2683      2685      2687      2686      2688      2690      2689      2691
      2693      2692      2694      2696      2695      2697      2699      2698      2700
      2702      2701      2703      2705      2704      2706      2708      2707      2709
      2711      2710      2712      2714      2713      2715      2717      2716      2718
      2720      2719      2721      2723      2722      2724      2726      2725      2727
      2729      2728      2730      2732      2731      2733      2735      2734      2736
      2738      2737      2739      2741      2740      2742      2744      2743      2745
      2747      2746      2748      2750      2749      2751      2753      2752      2754
      2756      2755      2757      2759      2758      2760      2762      2761      2763
      2765      2764      2766      2768      2767      2769      2771      2770      2772
      2774      2773      2775      2777      2776      2778      2780      2779      2781
      2783      2782      2784      2786      2785      2787      2789      2788      2790
      2792      2791      2793      2795      2794      2796      2798      2797      2799
      2801      2800      2802      2804      2803      2805      2807      2806      2808
      2810      2809      2811      2813      2812      2814      2816      2815      2817
      2819      2818      2820      2822      2821      2823      2825      2824      2826
      2828      2827      2829      2831      2830      2832      2834      2833      2835
      2837      2836      2838      2840      2839      2841      2843      2842      2844
      2846      2845      2847      2849      2848      2850      2852      2851      2853
      2855      2854      2856      2858      2857      2859      2861      2860      2862
      2864      2863      2865      2867      2866      2868      2870      2869      2871
      2873      2872      2874      2876      2875      2877      2879      2878      2880
      2882      2881      2883      2885      2884      2886      2888      2887      2889
      2891      2890      2892      2894      2893      2895      2897      2896      2898
      2900      2899      2901      2903      2902      2904      2906      2905      2907
      2909      2908      2910      2912      2911      2913      2915      2914      2916
      2918      2917      2919      2921      2920      2922      2924      2923      2925
      2927      2926      2928      2930      2929      2931      2933      2932      2934
      2936      2935      2937      2939      2938      2940      2942      2941      2943
      2945      2944      2946      2948      2947      2949      2951      2950      2952
      2954      2953      2955      2957      2956      2958      2960      2959      2961
      2963      2962      2964      2966      2965      2967      2969      2968      2970
      2972      2971      2973      2975      2974      2976      2978      2977      2979
      2981      2980      2982      2984      2983      2985      2987      2986      2988
      2990      2989      2991      2993      2992      2994      2996      2995      2997
      2999      2998      3000      3002      3001      3003      3005      3004      3006
      3008      3007      3009      3011      3010      3012      3014      3013      3015
      3017      3016      3018      3020      3019      3021      3023      3022      3024
      3026      3025      3027      3029      3028      3030      3032      3031      3033
      3035      3034      3036      3038      3037      3039      3041      3040      3042
      3044      3043      3045      3047      3046      3048      3050      3049      3051
      3053      3052      3054      3056      3055      3057      3059      3058      3060
      3062      3061      3063      3065      3064      3066      3068      3067      3069
      3071      3070      3072      3074      3073      3075      3077      3076      3078
      3080      3079      3081      3083      3082      3084      3086      3085      3087
      3089      3088      3090      3092      3091      3093      3095      3094      3096
      3098      3097      3099      3101      3100      3102      3104      3103      3105
      3107      3106      3108      3110      3109      3111      3113      3112      3114
      3116      3115      3117      3119      3118      3120      3122      3121      3123
      3125      3124      3126      3128      3127      3129      3131      3130      3132
      3134      3133      3135      3137      3136      3138      3140      3139      3141
      3143      3142      3144      3146      3145      3147      3149      3148      3150
      3152      3151      3153      3155      3154      3156      3158      3157      3159
      3161      3160      3162      3164      3163      3165      3167      3166      3168
      3170      3169      3171      3173      3172      3174      3176      3175      3177
      3179      3178      3180      3182      3181      3183      3185      3184      3186
      3188      3187      3189      3191      3190      3192      3194      3193      3195
      3197      3196      3198      3200      3199      3201      3203      3202      3204
      3206      3205      3207      3209      3208      3210      3212      3211      3213
      3215      3214      3216      3218      3217      3219      3221      3220      3222
      3224      3223      3225      3227      3226      3228      3230      3229      3231
      3233      3232      3234      3236      3235      3237      3239      3238      3240
      3242      3241      3243      3245      3244      3246      3248      3247      3249
      3251      3250      3252      3254      3253      3255      3257      3256      3258
      3260      3259      3261      3263      3262      3264      3266      3265      3267
      3269      3268      3270      3272      3271      3273      3275      3274      3276
      3278      3277      3279      3281      3280      3282      3284      3283      3285
      3287      3286      3288      3290      3289      3291      3293      3292      3294
      3296      3295      3297      3299      3298      3300      3302      3301      3303
      3305      3304      3306      3308      3307      3309      3311      3310      3312
      3314      3313      3315      3317      3316      3318      3320      3319      3321
      3323      3322      3324      3326      3325      3327      3329      3328      3330
      3332      3331      3333      3335      3334      3336      3338      3337      3339
      3341      3340      3342      3344      3343      3345      3347      3346      3348
      3350      3349      3351      3353      3352      3354      3356      3355      3357
      3359      3358      3360      3362      3361      3363      3365      3364      3366
      3368      3367      3369      3371      3370      3372      3374      3373      3375
      3377      3376      3378      3380      3379      3381      3383      3382      3384
      3386      3385      3387      3389      3388      3390      3392      3391      3393
      3395      3394      3396      3398      3397      3399      3401      3400      3402
      3404      3403      3405      3407      3406      3408      3410      3409      3411
      3413      3412      3414      3416      3415      3417      3419      3418      3420
      3422      3421      3423      3425      3424      3426      3428      3427      3429
      3431      3430      3432      3434      3433      3435      3437      3436      3438
      3440      3439      3441      3443      3442      3444      3446      3445      3447
      3449      3448      3450      3452      3451      3453      3455      3454      3456
      3458      3457      3459      3461      3460      3462      3464      3463      3465
      3467      3466      3468      3470      3469      3471      3473      3472      3474
      3476      3475      3477      3479      3478      3480      3482      3481      3483
      3485      3484      3486      3488      3487      3489      3491      3490      3492
      3494      3493      3495      3497      3496      3498      3500      3499      3501
      3503      3502      3504      3506      3505      3507      3509      3508      3510
      3512      3511      3513      3515      3514      3516      3518      3517      3519
      3521      3520      3522      3524      3523      3525      3527      3526      3528
      3530      3529      3531      3533      3532      3534      3536      3535      3537
      3539      3538      3540      3542      3541      3543      3545      3544      3546
      3548      3547      3549      3551      3550      3552      3554      3553      3555
      3557      3556      3558      3560      3559      3561      3563      3562      3564
      3566      3565      3567      3569      3568      3570      3572      3571      3573
      3575      3574      3576      3578      3577      3579      3581      3580      3582
      3584      3583      3585      3587      3586      3588      3590      3589      3591
      3593      3592      3594      3596      3595      3597      3599      3598      3600
      3602      3601      3603      3605      3604      3606      3608      3607      3609
      3611      3610      3612      3614      3613      3615      3617      3616      3618
      3620      3619      3621      3623      3622      3624      3626      3625      3627
      3629      3628      3630      3632      3631      3633      3635      3634      3636
      3638      3637      3639      3641      3640      3642      3644      3643      3645
      3647      3646      3648      3650      3649      3651      3653      3652      3654
      3656      3655      3657      3659      3658      3660      3662      3661      3663
      3665      3664      3666      3668      3667      3669      3671      3670      3672
      3674      3673      3675      3677      3676      3678      3680      3679      3681
      3683      3682      3684      3686      3685      3687      3689      3688      3690
      3692      3691      3693      3695      3694      3696      3698      3697      3699
      3701      3700      3702      3704      3703      3705      3707      3706      3708
      3710      3709      3711      3713      3712      3714      3716      3715      3717
      3719      3718      3720      3722      3721      3723      3725      3724      3726
      3728      3727      3729      3731      3730      3732      3734      3733      3735
      3737      3736      3738      3740      3739      3741      3743      3742      3744
      3746      3745      3747      3749      3748      3750      3752      3751      3753
      3755      3754      3756      3758      3757      3759      3761      3760      3762
      3764      3763      3765      3767      3766      3768      3770      3769      3771
      3773      3772      3774      3776      3775      3777      3779      3778      3780
      3782      3781      3783      3785      3784      3786      3788      3787      3789
      3791      3790      3792      3794      3793      3795      3797      3796      3798
      3800      3799      3801      3803      3802      3804      3806      3805      3807
      3809      3808      3810      3812      3811      3813      3815      3814      3816
      3818      3817      3819      3821      3820      3822      3824      3823      3825
      3827      3826      3828      3830      3829      3831      3833      3832      3834
      3836      3835      3837      3839      3838      3840      3842      3841      3843
      3845      3844      3846      3848      3847      3849      3851      3850      3852
      3854      3853      3855      3857      3856      3858      3860      3859      3861
      3863      3862      3864      3866      3865      3867      3869      3868      3870
      3872      3871      3873      3875      3874      3876      3878      3877      3879
      3881      3880      3882      3884      3883      3885      3887      3886      3888
      3890      3889      3891      3893      3892      3894      3896      3895      3897
      3899      3898      3900      3902      3901      3903      3905      3904      3906
      3908      3907      3909      3911      3910      3912      3914      3913      3915
      3917      3916      3918      3920      3919      3921      3923      3922      3924
      3926      3925      3927      3929      3928      3930      3932      3931      3933
      3935      3934      3936      3938      3937      3939      3941      3940      3942
      3944      3943      3945      3947      3946      3948      3950      3949      3951
      3953      3952      3954      3956      3955      3957      3959      3958      3960
      3962      3961      3963      3965      3964      3966      3968      3967      3969
      3971      3970      3972      3974      3973      3975      3977      3976      3978
      3980      3979      3981      3983      3982      3984      3986      3985      3987
      3989      3988      3990      3992      3991      3993      3995      3994      3996
      3998      3997      3999      4001      4000      4002      4004      4003      4005
      4007      4006      4008      4010      4009      4011      4013      4012      4014
      4016      4015      4017      4019      4018      4020      4022      4021      4023
      4025      4024      4026      4028      4027      4029      4031      4030      4032
      4034      4033      4035      4037      4036      4038      4040      4039      4041
      4043      4042      4044      4046      4045      4047      4049      4048      4050
      4052      4051      4053      4055      4054      4056      4058      4057      4059
      4061      4060      4062      4064      4063      4065      4067      4066      4068
      4070      4069      4071      4073      4072      4074      4076      4075      4077
      4079      4078      4080      4082      4081      4083      4085      4084      4086
      4088      4087      4089      4091      4090      4092      4094      4093      4095
      4097      4096      4098      4100      4099      4101      4103      4102      4104
      4106      4105      4107      4109      4108      4110      4112      4111      4113
      4115      4114      4116      4118      4117      4119      4121      4120      4122
      4124      4123      4125      4127      4126      4128      4130      4129      4131
      4133      4132      4134      4136      4135      4137      4139      4138      4140
      4142      4141      4143      4145      4144      4146      4148      4147      4149
      4151      4150      4152      4154      4153      4155      4157      4156      4158
      4160      4159      4161      4163      4162      4164      4166      4165      4167
      4169      4168      4170      4172      4171      4173      4175      4174      4176
      4178      4177      4179      4181      4180      4182      4184      4183      4185
      4187      4186      4188      4190      4189      4191      4193      4192      4194
      4196      4195      4197      4199      4198      4200      4202      4201      4203
      4205      4204      4206      4208      4207      4209      4211      4210      4212
      4214      4213      4215      4217      4216      4218      4220      4219      4221
      4223      4222      4224      4226      4225      4227      4229      4228      4230
      4232      4231      4233      4235      4234      4236      4238      4237      4239
      4241      4240      4242      4244      4243      4245      4247      4246      4248
      4250      4249      4251      4253      4252      4254      4256      4255      4257
      4259      4258      4260      4262      4261      4263      4265      4264      4266
      4268      4267      4269      4271      4270      4272      4274      4273      4275
      4277      4276      4278      4280      4279      4281      4283      4282      4284
      4286      4285      4287      4289      4288      4290      4292      4291      4293
      4295      4294      4296      4298      4297      4299      4301      4300      4302
      4304      4303      4305      4307      4306      4308      4310      4309      4311
      4313      4312      4314      4316      4315      4317      4319      4318      4320
      4322      4321      4323      4325      4324      4326      4328      4327      4329
      4331      4330      4332      4334      4333      4335      4337      4336      4338
      4340      4339      4341      4343      4342      4344      4346      4345      4347
      4349      4348      4350      4352      4351      4353      4355      4354      4356
      4358      4357      4359      4361      4360      4362      4364      4363      4365
      4367      4366      4368      4370      4369      4371      4373      4372      4374
      4376      4375      4377      4379      4378      4380      4382      4381      4383
      4385      4384      4386      4388      4387      4389      4391      4390      4392
      4394      4393      4395      4397      4396      4398      4400      4399      4401
      4403      4402      4404      4406      4405      4407      4409      4408      4410
      4412      4411      4413      4415      4414      4416      4418      4417      4419
      4421      4420      4422      4424      4423      4425      4427      4426      4428
      4430      4429      4431      4433      4432      4434      4436      4435      4437
      4439      4438      4440      4442      4441      4443      4445      4444      4446
      4448      4447      4449      4451      4450      4452      4454      4453      4455
      4457      4456      4458      4460      4459      4461      4463      4462      4464
      4466      4465      4467      4469      4468      4470      4472      4471      4473
      4475      4474      4476      4478      4477      4479      4481      4480      4482
      4484      4483      4485      4487      4486      4488      4490      4489      4491
      4493      4492      4494      4496      4495      4497      4499      4498      4500
      4502      4501      4503      4505      4504      4506      4508      4507      4509
      4511      4510      4512      4514      4513      4515      4517      4516      4518
      4520      4519      4521      4523      4522      4524      4526      4525      4527
      4529      4528      4530      4532      4531      4533      4535      4534      4536
      4538      4537      4539      4541      4540      4542      4544      4543      4545
      4547      4546      4548      4550      4549      4551      4553      4552      4554
      4556      4555      4557      4559      4558      4560      4562      4561      4563
      4565      4564      4566      4568      4567      4569      4571      4570      4572
      4574      4573      4575      4577      4576      4578      4580      4579      4581
      4583      4582      4584      4586      4585      4587      4589      4588      4590
      4592      4591      4593      4595      4594      4596      4598      4597      4599
      4601      4600      4602      4604      4603      4605      4607      4606      4608
      4610      4609      4611      4613      4612      4614      4616      4615      4617
      4619      4618      4620      4622      4621      4623      4625      4624      4626
      4628      4627      4629      4631      4630      4632      4634      4633      4635
      4637      4636      4638      4640      4639      4641      4643      4642      4644
      4646      4645      4647      4649      4648      4650      4652      4651      4653
      4655      4654      4656      4658      4657      4659      4661      4660      4662
      4664      4663      4665      4667      4666      4668      4670      4669      4671
      4673      4672      4674      4676      4675      4677      4679      4678      4680
      4682      4681      4683      4685      4684      4686      4688      4687      4689
      4691      4690      4692      4694      4693      4695      4697      4696      4698
      4700      4699      4701      4703      4702      4704      4706      4705      4707
      4709      4708      4710      4712      4711      4713      4715      4714      4716
      4718      4717      4719      4721      4720      4722      4724      4723      4725
      4727      4726      4728      4730      4729      4731      4733      4732      4734
      4736      4735      4737      4739      4738      4740      4742      4741      4743
      4745      4744      4746      4748      4747      4749      4751      4750      4752
      4754      4753      4755      4757      4756      4758      4760      4759      4761
      4763      4762      4764      4766      4765      4767      4769      4768      4770
      4772      4771      4773      4775      4774      4776      4778      4777      4779
      4781      4780      4782      4784      4783      4785      4787      4786      4788
      4790      4789      4791      4793      4792      4794      4796      4795      4797
      4799      4798      4800      4802      4801      4803      4805      4804      4806
      4808      4807      4809      4811      4810      4812      4814      4813      4815
      4817      4816      4818      4820      4819      4821      4823      4822      4824
      4826      4825      4827      4829      4828      4830      4832      4831      4833
      4835      4834      4836      4838      4837      4839      4841      4840      4842
      4844      4843      4845      4847      4846      4848      4850      4849      4851
      4853      4852      4854      4856      4855      4857      4859      4858      4860
      4862      4861      4863      4865      4864      4866      4868      4867      4869
      4871      4870      4872      4874      4873      4875      4877      4876      4878
      4880      4879      4881      4883      4882      4884      4886      4885      4887
      4889      4888      4890      4892      4891      4893      4895      4894      4896
      4898      4897      4899      4901      4900      4902      4904      4903      4905
      4907      4906      4908      4910      4909      4911      4913      4912      4914
      4916      4915      4917      4919      4918      4920      4922      4921      4923
      4925      4924      4926      4928      4927      4929      4931      4930      4932
      4934      4933      4935      4937      4936      4938      4940      4939      4941
      4943      4942      4944      4946      4945      4947      4949      4948      4950
      4952      4951      4953      4955      4954      4956      4958      4957      4959
      4961      4960      4962      4964      4963      4965      4967      4966      4968
      4970      4969      4971      4973      4972      4974      4976      4975      4977
      4979      4978      4980      4982      4981      4983      4985      4984      4986
      4988      4987      4989      4991      4990      4992      4994      4993      4995
      4997      4996      4998      5000      4999      5001      5003      5002      5004
      5006      5005      5007      5009      5008      5010      5012      5011      5013
      5015      5014      5016      5018      5017      5019      5021      5020      5022
      5024      5023      5025      5027      5026      5028      5030      5029      5031
      5033      5032      5034      5036      5035      5037      5039      5038      5040
      5042      5041      5043      5045      5044      5046      5048      5047      5049
      5051      5050      5052      5054      5053      5055      5057      5056      5058
      5060      5059      5061      5063      5062      5064      5066      5065      5067
      5069      5068      5070      5072      5071      5073      5075      5074      5076
      5078      5077      5079      5081      5080      5082      5084      5083      5085
      5087      5086      5088      5090      5089      5091      5093      5092      5094
      5096      5095      5097      5099      5098      5100      5102      5101      5103
      5105      5104      5106      5108      5107      5109      5111      5110      5112
      5114      5113      5115      5117      5116      5118      5120      5119      5121
      5123      5122      5124      5126      5125      5127      5129      5128      5130
      5132      5131      5133      5135      5134      5136      5138      5137      5139
      5141      5140      5142      5144      5143      5145      5147      5146      5148
      5150      5149      5151      5153      5152      5154      5156      5155      5157
      5159      5158      5160      5162      5161      5163      5165      5164      5166
      5168      5167      5169      5171      5170      5172      5174      5173      5175
      5177      5176      5178      5180      5179      5181      5183      5182      5184
      5186      5185      5187      5189      5188      5190      5192      5191      5193
      5195      5194      5196      5198      5197      5199      5201      5200      5202
      5204      5203      5205      5207      5206      5208      5210      5209      5211
      5213      5212      5214      5216      5215      5217      5219      5218      5220
      5222      5221      5223      5225      5224      5226      5228      5227      5229
      5231      5230      5232      5234      5233      5235      5237      5236      5238
      5240      5239      5241      5243      5242      5244      5246      5245      5247
      5249      5248      5250      5252      5251      5253      5255      5254      5256
      5258      5257      5259      5261      5260      5262      5264      5263      5265
      5267      5266      5268      5270      5269      5271      5273      5272      5274
      5276      5275      5277      5279      5278      5280      5282      5281      5283
      5285      5284      5286      5288      5287      5289      5291      5290      5292
      5294      5293      5295      5297      5296      5298      5300      5299      5301
      5303      5302      5304      5306      5305      5307      5309      5308      5310
      5312      5311      5313      5315      5314      5316      5318      5317      5319
      5321      5320      5322      5324      5323      5325      5327      5326      5328
      5330      5329      5331      5333      5332      5334      5336      5335      5337
      5339      5338      5340      5342      5341      5343      5345      5344      5346
      5348      5347      5349      5351      5350      5352      5354      5353      5355
      5357      5356      5358      5360      5359      5361      5363      5362      5364
      5366      5365      5367      5369      5368      5370      5372      5371      5373
      5375      5374      5376      5378      5377      5379      5381      5380      5382
      5384      5383      5385      5387      5386      5388      5390      5389      5391
      5393      5392      5394      5396      5395      5397      5399      5398      5400
      5402      5401      5403      5405      5404      5406      5408      5407      5409
      5411      5410      5412      5414      5413      5415      5417      5416      5418
      5420      5419      5421      5423      5422      5424      5426      5425      5427
      5429      5428      5430      5432      5431      5433      5435      5434      5436
      5438      5437      5439      5441      5440      5442      5444      5443      5445
      5447      5446      5448      5450      5449      5451      5453      5452      5454
      5456      5455      5457      5459      5458      5460      5462      5461      5463
      5465      5464      5466      5468      5467      5469      5471      5470      5472
      5474      5473      5475      5477      5476      5478      5480      5479      5481
      5483      5482      5484      5486      5485      5487      5489      5488      5490
      5492      5491      5493      5495      5494      5496      5498      5497      5499
      5501      5500      5502      5504      5503      5505      5507      5506      5508
      5510      5509      5511      5513      5512      5514      5516      5515      5517
      5519      5518      5520      5522      5521      5523      5525      5524      5526
      5528      5527      5529      5531      5530      5532      5534      5533      5535
      5537      5536      5538      5540      5539      5541      5543      5542      5544
      5546      5545      5547      5549      5548      5550      5552      5551      5553
      5555      5554      5556      5558      5557      5559      5561      5560      5562
      5564      5563      5565      5567      5566      5568      5570      5569      5571
      5573      5572      5574      5576      5575      5577      5579      5578      5580
      5582      5581      5583      5585      5584      5586      5588      5587      5589
      5591      5590      5592      5594      5593      5595      5597      5596      5598
      5600      5599      5601      5603      5602      5604      5606      5605      5607
      5609      5608      5610      5612      5611      5613      5615      5614      5616
      5618      5617      5619      5621      5620      5622      5624      5623      5625
      5627      5626      5628      5630      5629      5631      5633      5632      5634
      5636      5635      5637      5639      5638      5640      5642      5641      5643
      5645      5644      5646      5648      5647      5649      5651      5650      5652
      5654      5653      5655      5657      5656      5658      5660      5659      5661
      5663      5662      5664      5666      5665      5667      5669      5668      5670
      5672      5671      5673      5675      5674      5676      5678      5677      5679
      5681      5680      5682      5684      5683      5685      5687      5686      5688
      5690      5689      5691      5693      5692      5694      5696      5695      5697
      5699      5698      5700      5702      5701      5703      5705      5704      5706
      5708      5707      5709      5711      5710      5712      5714      5713      5715
      5717      5716      5718      5720      5719      5721      5723      5722      5724
      5726      5725      5727      5729      5728      5730      5732      5731      5733
      5735      5734      5736      5738      5737      5739      5741      5740      5742
      5744      5743      5745      5747      5746      5748      5750      5749      5751
      5753      5752      5754      5756      5755      5757      5759      5758      5760
      5762      5761      5763      5765      5764      5766      5768      5767      5769
      5771      5770      5772      5774      5773      5775      5777      5776      5778
      5780      5779      5781      5783      5782      5784      5786      5785      5787
      5789      5788      5790      5792      5791      5793      5795      5794      5796
      5798      5797      5799      5801      5800      5802      5804      5803      5805
      5807      5806      5808      5810      5809      5811      5813      5812      5814
      5816      5815      5817      5819      5818      5820      5822      5821      5823
      5825      5824      5826      5828      5827      5829      5831      5830      5832
      5834      5833      5835      5837      5836      5838      5840      5839      5841
      5843      5842      5844      5846      5845      5847      5849      5848      5850
      5852      5851      5853      5855      5854      5856      5858      5857      5859
      5861      5860      5862      5864      5863      5865      5867      5866      5868
      5870      5869      5871      5873      5872      5874      5876      5875      5877
      5879      5878      5880      5882      5881      5883      5885      5884      5886
      5888      5887      5889      5891      5890      5892      5894      5893      5895
      5897      5896      5898      5900      5899      5901      5903      5902      5904
      5906      5905      5907      5909      5908      5910      5912      5911      5913
      5915      5914      5916      5918      5917      5919      5921      5920      5922
      5924      5923      5925      5927      5926      5928      5930      5929      5931
      5933      5932      5934      5936      5935      5937      5939      5938      5940
      5942      5941      5943      5945      5944      5946      5948      5947      5949
      5951      5950      5952      5954      5953      5955      5957      5956      5958
      5960      5959      5961      5963      5962      5964      5966      5965      5967
      5969      5968      5970      5972      5971      5973      5975      5974      5976
      5978      5977      5979      5981      5980      5982      5984      5983      5985
      5987      5986      5988      5990      5989      5991      5993      5992      5994
      5996      5995      5997      5999      5998      6000      6002      6001      6003
      6005      6004      6006      6008      6007      6009      6011      6010      6012
      6014      6013      6015      6017      6016      6018      6020      6019      6021
      6023      6022      6024      6026      6025      6027      6029      6028      6030
      6032      6031      6033      6035      6034      6036      6038      6037      6039
      6041      6040      6042      6044      6043      6045      6047      6046      6048
      6050      6049      6051      6053      6052      6054      6056      6055      6057
      6059      6058      6060      6062      6061      6063      6065      6064      6066
      6068      6067      6069      6071      6070      6072      6074      6073      6075
      6077      6076      6078      6080      6079      6081      6083      6082      6084
      6086      6085      6087      6089      6088      6090      6092      6091      6093
      6095      6094      6096      6098      6097      6099      6101      6100      6102
      6104      6103      6105      6107      6106      6108      6110      6109      6111
      6113      6112      6114      6116      6115      6117      6119      6118      6120
      6122      6121      6123      6125      6124      6126      6128      6127      6129
      6131      6130      6132      6134      6133      6135      6137      6136      6138
      6140      6139      6141      6143      6142      6144      6146      6145      6147
      6149      6148      6150      6152      6151      6153      6155      6154      6156
      6158      6157      6159      6161      6160      6162      6164      6163      6165
      6167      6166      6168      6170      6169      6171      6173      6172      6174
      6176      6175      6177      6179      6178      6180      6182      6181      6183
      6185      6184      6186      6188      6187      6189      6191      6190      6192
      6194      6193      6195      6197      6196      6198      6200      6199      6201
      6203      6202      6204      6206      6205      6207      6209      6208      6210
      6212      6211      6213      6215      6214      6216      6218      6217      6219
      6221      6220      6222      6224      6223      6225      6227      6226      6228
      6230      6229      6231      6233      6232      6234      6236      6235      6237
      6239      6238      6240      6242      6241      6243      6245      6244      6246
      6248      6247      6249      6251      6250      6252      6254      6253      6255
      6257      6256      6258      6260      6259      6261      6263      6262      6264
      6266      6265      6267      6269      6268      6270      6272      6271      6273
      6275      6274      6276      6278      6277      6279      6281      6280      6282
      6284      6283      6285      6287      6286      6288      6290      6289      6291
      6293      6292      6294      6296      6295      6297      6299      6298      6300
      6302      6301      6303      6305      6304      6306      6308      6307      6309
      6311      6310      6312      6314      6313      6315      6317      6316      6318
      6320      6319      6321      6323      6322      6324      6326      6325      6327
      6329      6328      6330      6332      6331      6333      6335      6334      6336
      6338      6337      6339      6341      6340      6342      6344      6343      6345
      6347      6346      6348      6350      6349      6351      6353      6352      6354
      6356      6355      6357      6359      6358      6360      6362      6361      6363
      6365      6364      6366      6368      6367      6369      6371      6370      6372
      6374      6373      6375      6377      6376      6378      6380      6379      6381
      6383      6382      6384      6386      6385      6387      6389      6388      6390
      6392      6391      6393      6395      6394      6396      6398      6397      6399
      6401      6400      6402      6404      6403      6405      6407      6406      6408
      6410      6409      6411      6413      6412      6414      6416      6415      6417
      6419      6418      6420      6422      6421      6423      6425      6424      6426
      6428      6427      6429      6431      6430      6432      6434      6433      6435
      6437      6436      6438      6440      6439      6441      6443      6442      6444
      6446      6445      6447      6449      6448      6450      6452      6451      6453
      6455      6454      6456      6458      6457      6459      6461      6460      6462
      6464      6463      6465      6467      6466      6468      6470      6469      6471
      6473      6472      6474      6476      6475      6477      6479      6478      6480
      6482      6481      6483      6485      6484      6486      6488      6487      6489
      6491      6490      6492      6494      6493      6495      6497      6496      6498
      6500      6499      6501      6503      6502      6504      6506      6505      6507
      6509      6508      6510      6512      6511      6513      6515      6514      6516
      6518      6517      6519      6521      6520      6522      6524      6523      6525
      6527      6526      6528      6530      6529      6531      6533      6532      6534
      6536      6535      6537      6539      6538      6540      6542      6541      6543
      6545      6544      6546      6548      6547      6549      6551      6550      6552
      6554      6553      6555      6557      6556      6558      6560      6559      6561
      6563      6562      6564      6566      6565      6567      6569      6568      6570
      6572      6571      6573      6575      6574      6576      6578      6577      6579
      6581      6580      6582      6584      6583      6585      6587      6586      6588
      6590      6589      6591      6593      6592      6594      6596      6595      6597
      6599      6598      6600      6602      6601      6603      6605      6604      6606
      6608      6607      6609      6611      6610      6612      6614      6613      6615
      6617      6616      6618      6620      6619      6621      6623      6622      6624
      6626      6625      6627      6629      6628      6630      6632      6631      6633
      6635      6634      6636      6638      6637      6639      6641      6640      6642
      6644      6643      6645      6647      6646      6648      6650      6649      6651
      6653      6652      6654      6656      6655      6657      6659      6658      6660
      6662      6661      6663      6665      6664      6666      6668      6667      6669
      6671      6670      6672      6674      6673      6675      6677      6676      6678
      6680      6679      6681      6683      6682      6684      6686      6685      6687
      6689      6688      6690      6692      6691      6693      6695      6694      6696
      6698      6697      6699      6701      6700      6702      6704      6703      6705
      6707      6706      6708      6710      6709      6711      6713      6712      6714
      6716      6715      6717      6719      6718      6720      6722      6721      6723
      6725      6724      6726      6728      6727      6729      6731      6730      6732
      6734      6733      6735      6737      6736      6738      6740      6739      6741
      6743      6742      6744      6746      6745      6747      6749      6748      6750
      6752      6751      6753      6755      6754      6756      6758      6757      6759
      6761      6760      6762      6764      6763      6765      6767      6766      6768
      6770      6769      6771      6773      6772      6774      6776      6775      6777
      6779      6778      6780      6782      6781      6783      6785      6784      6786
      6788      6787      6789      6791      6790      6792      6794      6793      6795
      6797      6796      6798      6800      6799      6801      6803      6802      6804
      6806      6805      6807      6809      6808      6810      6812      6811      6813
      6815      6814      6816      6818      6817      6819      6821      6820      6822
      6824      6823      6825      6827      6826      6828      6830      6829      6831
      6833      6832      6834      6836      6835      6837      6839      6838      6840
      6842      6841      6843      6845      6844      6846      6848      6847      6849
      6851      6850      6852      6854      6853      6855      6857      6856      6858
      6860      6859      6861      6863      6862      6864      6866      6865      6867
      6869      6868      6870      6872      6871      6873      6875      6874      6876
      6878      6877      6879      6881      6880      6882      6884      6883      6885
      6887      6886      6888      6890      6889      6891      6893      6892      6894
      6896      6895      6897      6899      6898      6900      6902      6901      6903
      6905      6904      6906      6908      6907      6909      6911      6910      6912
      6914      6913      6915      6917      6916      6918      6920      6919      6921
      6923      6922      6924      6926      6925      6927      6929      6928      6930
      6932      6931      6933      6935      6934      6936      6938      6937      6939
      6941      6940      6942      6944      6943      6945      6947      6946      6948
      6950      6949      6951      6953      6952      6954      6956      6955      6957
      6959      6958      6960      6962      6961      6963      6965      6964      6966
      6968      6967      6969      6971      6970      6972      6974      6973      6975
      6977      6976      6978      6980      6979      6981      6983      6982      6984
      6986      6985      6987      6989      6988      6990      6992      6991      6993
      6995      6994      6996      6998      6997      6999      7001      7000      7002
      7004      7003      7005      7007      7006      7008      7010      7009      7011
      7013      7012      7014      7016      7015      7017      7019      7018      7020
      7022      7021      7023      7025      7024      7026      7028      7027      7029
      7031      7030      7032      7034      7033      7035      7037      7036      7038
      7040      7039      7041      7043      7042      7044      7046      7045      7047
      7049      7048      7050      7052      7051      7053      7055      7054      7056
      7058      7057      7059      7061      7060      7062      7064      7063      7065
      7067      7066      7068      7070      7069      7071      7073      7072      7074
      7076      7075      7077      7079      7078      7080      7082      7081      7083
      7085      7084      7086      7088      7087      7089      7091      7090      7092
      7094      7093      7095      7097      7096      7098      7100      7099      7101
      7103      7102      7104      7106      7105      7107      7109      7108      7110
      7112      7111      7113      7115      7114      7116      7118      7117      7119
      7121      7120      7122      7124      7123      7125      7127      7126      7128
      7130      7129      7131      7133      7132      7134      7136      7135      7137
      7139      7138      7140      7142      7141      7143      7145      7144      7146
      7148      7147      7149      7151      7150      7152      7154      7153      7155
      7157      7156      7158      7160      7159      7161      7163      7162      7164
      7166      7165      7167      7169      7168      7170      7172      7171      7173
      7175      7174      7176      7178      7177      7179      7181      7180      7182
      7184      7183      7185      7187      7186      7188      7190      7189      7191
      7193      7192      7194      7196      7195      7197      7199      7198      7200
      7202      7201      7203      7205      7204      7206      7208      7207      7209
      7211      7210      7212      7214      7213      7215      7217      7216      7218
      7220      7219      7221      7223      7222      7224      7226      7225      7227
      7229      7228      7230      7232      7231      7233      7235      7234      7236
      7238      7237      7239      7241      7240      7242      7244      7243      7245
      7247      7246      7248      7250      7249      7251      7253      7252      7254
      7256      7255      7257      7259      7258      7260      7262      7261      7263
      7265      7264      7266      7268      7267      7269      7271      7270      7272
      7274      7273      7275      7277      7276      7278      7280      7279      7281
      7283      7282      7284      7286      7285      7287      7289      7288      7290
      7292      7291      7293      7295      7294      7296      7298      7297      7299
      7301      7300      7302      7304      7303      7305      7307      7306      7308
      7310      7309      7311      7313      7312      7314      7316      7315      7317
      7319      7318      7320      7322      7321      7323      7325      7324      7326
      7328      7327      7329      7331      7330      7332      7334      7333      7335
      7337      7336      7338      7340      7339      7341      7343      7342      7344
      7346      7345      7347      7349      7348      7350      7352      7351      7353
      7355      7354      7356      7358      7357      7359      7361      7360      7362
      7364      7363      7365      7367      7366      7368      7370      7369      7371
      7373      7372      7374      7376      7375      7377      7379      7378      7380
      7382      7381      7383      7385      7384      7386      7388      7387      7389
      7391      7390      7392      7394      7393      7395      7397      7396      7398
      7400      7399      7401      7403      7402      7404      7406      7405      7407
      7409      7408      7410      7412      7411      7413      7415      7414      7416
      7418      7417      7419      7421      7420      7422      7424      7423      7425
      7427      7426      7428      7430      7429      7431      7433      7432      7434
      7436      7435      7437      7439      7438      7440      7442      7441      7443
      7445      7444      7446      7448      7447      7449      7451      7450      7452
      7454      7453      7455      7457      7456      7458      7460      7459      7461
      7463      7462      7464      7466      7465      7467      7469      7468      7470
      7472      7471      7473      7475      7474      7476      7478      7477      7479
      7481      7480      7482      7484      7483      7485      7487      7486      7488
      7490      7489      7491      7493      7492      7494      7496      7495      7497
      7499      7498      7500      7502      7501      7503      7505      7504      7506
      7508      7507      7509      7511      7510      7512      7514      7513      7515
      7517      7516      7518      7520      7519      7521      7523      7522      7524
      7526      7525      7527      7529      7528      7530      7532      7531      7533
      7535      7534      7536      7538      7537      7539      7541      7540      7542
      7544      7543      7545      7547      7546      7548      7550      7549      7551
      7553      7552      7554      7556      7555      7557      7559      7558      7560
      7562      7561      7563      7565      7564      7566      7568      7567      7569
      7571      7570      7572      7574      7573      7575      7577      7576      7578
      7580      7579      7581      7583      7582      7584      7586      7585      7587
      7589      7588      7590      7592      7591      7593      7595      7594      7596
      7598      7597      7599      7601      7600      7602      7604      7603      7605
      7607      7606      7608      7610      7609      7611      7613      7612      7614
      7616      7615      7617      7619      7618      7620      7622      7621      7623
      7625      7624      7626      7628      7627      7629      7631      7630      7632
      7634      7633      7635      7637      7636      7638      7640      7639      7641
      7643      7642      7644      7646      7645      7647      7649      7648      7650
      7652      7651      7653      7655      7654      7656      7658      7657      7659
      7661      7660      7662      7664      7663      7665      7667      7666      7668
      7670      7669      7671      7673      7672      7674      7676      7675      7677
      7679      7678      7680      7682      7681      7683      7685      7684      7686
      7688      7687      7689      7691      7690      7692      7694      7693      7695
      7697      7696      7698      7700      7699      7701      7703      7702      7704
      7706      7705      7707      7709      7708      7710      7712      7711      7713
      7715      7714      7716      7718      7717      7719      7721      7720      7722
      7724      7723      7725      7727      7726      7728      7730      7729      7731
      7733      7732      7734      7736      7735      7737      7739      7738      7740
      7742      7741      7743      7745      7744      7746      7748      7747      7749
      7751      7750      7752      7754      7753      7755      7757      7756      7758
      7760      7759      7761      7763      7762      7764      7766      7765      7767
      7769      7768      7770      7772      7771      7773      7775      7774      7776
      7778      7777      7779      7781      7780      7782      7784      7783      7785
      7787      7786      7788      7790      7789      7791      7793      7792      7794
      7796      7795      7797      7799      7798      7800      7802      7801      7803
      7805      7804      7806      7808      7807      7809      7811      7810      7812
      7814      7813      7815      7817      7816      7818      7820      7819      7821
      7823      7822      7824      7826      7825      7827      7829      7828      7830
      7832      7831      7833      7835      7834      7836      7838      7837      7839
      7841      7840      7842      7844      7843      7845      7847      7846      7848
      7850      7849      7851      7853      7852      7854      7856      7855      7857
      7859      7858      7860      7862      7861      7863      7865      7864      7866
      7868      7867      7869      7871      7870      7872      7874      7873      7875
      7877      7876      7878      7880      7879      7881      7883      7882      7884
      7886      7885      7887      7889      7888      7890      7892      7891      7893
      7895      7894      7896      7898      7897      7899      7901      7900      7902
      7904      7903      7905      7907      7906      7908      7910      7909      7911
      7913      7912      7914      7916      7915      7917      7919      7918      7920
      7922      7921      7923      7925      7924      7926      7928      7927      7929
      7931      7930      7932      7934      7933      7935      7937      7936      7938
      7940      7939      7941      7943      7942      7944      7946      7945      7947
      7949      7948      7950      7952      7951      7953      7955      7954      7956
      7958      7957      7959      7961      7960      7962      7964      7963      7965
      7967      7966      7968      7970      7969      7971      7973      7972      7974
      7976      7975      7977      7979      7978      7980      7982      7981      7983
      7985      7984      7986      7988      7987      7989      7991      7990      7992
      7994      7993      7995      7997      7996      7998      8000      7999      8001
      8003      8002      8004      8006      8005      8007      8009      8008      8010
      8012      8011      8013      8015      8014      8016      8018      8017      8019
      8021      8020      8022      8024      8023      8025      8027      8026      8028
      8030      8029      8031      8033      8032      8034      8036      8035      8037
      8039      8038      8040      8042      8041      8043      8045      8044      8046
      8048      8047      8049      8051      8050      8052      8054      8053      8055
      8057      8056      8058      8060      8059      8061      8063      8062      8064
      8066      8065      8067      8069      8068      8070      8072      8071      8073
      8075      8074      8076      8078      8077      8079      8081      8080      8082
      8084      8083      8085      8087      8086      8088      8090      8089      8091
      8093      8092      8094      8096      8095      8097      8099      8098      8100
      8102      8101      8103      8105      8104      8106      8108      8107      8109
      8111      8110      8112      8114      8113      8115      8117      8116      8118
      8120      8119      8121      8123      8122      8124      8126      8125      8127
      8129      8128      8130      8132      8131      8133      8135      8134      8136
      8138      8137      8139      8141      8140      8142      8144      8143      8145
      8147      8146      8148      8150      8149      8151      8153      8152      8154
      8156      8155      8157      8159      8158      8160      8162      8161      8163
      8165      8164      8166      8168      8167      8169      8171      8170      8172
      8174      8173      8175      8177      8176      8178      8180      8179      8181
      8183      8182      8184      8186      8185      8187      8189      8188      8190
      8192      8191      8193      8195      8194      8196      8198      8197      8199
      8201      8200      8202      8204      8203      8205      8207      8206      8208
      8210      8209      8211      8213      8212      8214      8216      8215      8217
      8219      8218      8220      8222      8221      8223      8225      8224      8226
      8228      8227      8229      8231      8230      8232      8234      8233      8235
      8237      8236      8238      8240      8239      8241      8243      8242      8244
      8246      8245      8247      8249      8248      8250      8252      8251      8253
      8255      8254      8256      8258      8257      8259      8261      8260      8262
      8264      8263      8265      8267      8266      8268      8270      8269      8271
      8273      8272      8274      8276      8275      8277      8279      8278      8280
      8282      8281      8283      8285      8284      8286      8288      8287      8289
      8291      8290      8292      8294      8293      8295      8297      8296      8298
      8300      8299      8301      8303      8302      8304      8306      8305      8307
      8309      8308      8310      8312      8311      8313      8315      8314      8316
      8318      8317      8319      8321      8320      8322      8324      8323      8325
      8327      8326      8328      8330      8329      8331      8333      8332      8334
      8336      8335      8337      8339      8338      8340      8342      8341      8343
      8345      8344      8346      8348      8347      8349      8351      8350      8352
      8354      8353      8355      8357      8356      8358      8360      8359      8361
      8363      8362      8364      8366      8365      8367      8369      8368      8370
      8372      8371      8373      8375      8374      8376      8378      8377      8379
      8381      8380      8382      8384      8383      8385      8387      8386      8388
      8390      8389      8391      8393      8392      8394      8396      8395      8397
      8399      8398      8400      8402      8401      8403      8405      8404      8406
      8408      8407      8409      8411      8410      8412      8414      8413      8415
      8417      8416      8418      8420      8419      8421      8423      8422      8424
      8426      8425      8427      8429      8428      8430      8432      8431      8433
      8435      8434      8436      8438      8437      8439      8441      8440      8442
      8444      8443      8445      8447      8446      8448      8450      8449      8451
      8453      8452      8454      8456      8455      8457      8459      8458      8460
      8462      8461      8463      8465      8464      8466      8468      8467      8469
      8471      8470      8472      8474      8473      8475      8477      8476      8478
      8480      8479      8481      8483      8482      8484      8486      8485      8487
      8489      8488      8490      8492      8491      8493      8495      8494      8496
      8498      8497      8499      8501      8500      8502      8504      8503      8505
      8507      8506      8508      8510      8509      8511      8513      8512      8514
      8516      8515      8517      8519      8518      8520      8522      8521      8523
      8525      8524      8526      8528      8527      8529      8531      8530      8532
      8534      8533      8535      8537      8536      8538      8540      8539      8541
      8543      8542      8544      8546      8545      8547      8549      8548      8550
      8552      8551      8553      8555      8554      8556      8558      8557      8559
      8561      8560      8562      8564      8563      8565      8567      8566      8568
      8570      8569      8571      8573      8572      8574      8576      8575      8577
      8579      8578      8580      8582      8581      8583      8585      8584      8586
      8588      8587      8589      8591      8590      8592      8594      8593      8595
      8597      8596      8598      8600      8599      8601      8603      8602      8604
      8606      8605      8607      8609      8608      8610      8612      8611      8613
      8615      8614      8616      8618      8617      8619      8621      8620      8622
      8624      8623      8625      8627      8626      8628      8630      8629      8631
      8633      8632      8634      8636      8635      8637      8639      8638      8640
      8642      8641      8643      8645      8644      8646      8648      8647      8649
      8651      8650      8652      8654      8653      8655      8657      8656      8658
      8660      8659      8661      8663      8662      8664      8666      8665      8667
      8669      8668      8670      8672      8671      8673      8675      8674      8676
      8678      8677      8679      8681      8680      8682      8684      8683      8685
      8687      8686      8688      8690      8689      8691      8693      8692      8694
      8696      8695      8697      8699      8698      8700      8702      8701      8703
      8705      8704      8706      8708      8707      8709      8711      8710      8712
      8714      8713      8715      8717      8716      8718      8720      8719      8721
      8723      8722      8724      8726      8725      8727      8729      8728      8730
      8732      8731      8733      8735      8734      8736      8738      8737      8739
      8741      8740      8742      8744      8743      8745      8747      8746      8748
      8750      8749      8751      8753      8752      8754      8756      8755      8757
      8759      8758      8760      8762      8761      8763      8765      8764      8766
      8768      8767      8769      8771      8770      8772      8774      8773      8775
      8777      8776      8778      8780      8779      8781      8783      8782      8784
      8786      8785      8787      8789      8788      8790      8792      8791      8793
      8795      8794      8796      8798      8797      8799      8801      8800      8802
      8804      8803      8805      8807      8806      8808      8810      8809      8811
      8813      8812      8814      8816      8815      8817      8819      8818      8820
      8822      8821      8823      8825      8824      8826      8828      8827      8829
      8831      8830      8832      8834      8833      8835      8837      8836      8838
      8840      8839      8841      8843      8842      8844      8846      8845      8847
      8849      8848      8850      8852      8851      8853      8855      8854      8856
      8858      8857      8859      8861      8860      8862      8864      8863      8865
      8867      8866      8868      8870      8869      8871      8873      8872      8874
      8876      8875      8877      8879      8878      8880      8882      8881      8883
      8885      8884      8886      8888      8887      8889      8891      8890      8892
      8894      8893      8895      8897      8896      8898      8900      8899      8901
      8903      8902      8904      8906      8905      8907      8909      8908      8910
      8912      8911      8913      8915      8914      8916      8918      8917      8919
      8921      8920      8922      8924      8923      8925      8927      8926      8928
      8930      8929      8931      8933      8932      8934      8936      8935      8937
      8939      8938      8940      8942      8941      8943      8945      8944      8946
      8948      8947      8949      8951      8950      8952      8954      8953      8955
      8957      8956      8958      8960      8959      8961      8963      8962      8964
      8966      8965      8967      8969      8968      8970      8972      8971      8973
      8975      8974      8976      8978      8977      8979      8981      8980      8982
      8984      8983      8985      8987      8986      8988      8990      8989      8991
      8993      8992      8994      8996      8995      8997      8999      8998      9000
      9002      9001      9003      9005      9004      9006      9008      9007      9009
      9011      9010      9012      9014      9013      9015      9017      9016      9018
      9020      9019      9021      9023      9022      9024      9026      9025      9027
      9029      9028      9030      9032      9031      9033      9035      9034      9036
      9038      9037      9039      9041      9040      9042      9044      9043      9045
      9047      9046      9048      9050      9049      9051      9053      9052      9054
      9056      9055      9057      9059      9058      9060      9062      9061      9063
      9065      9064      9066      9068      9067      9069      9071      9070      9072
      9074      9073      9075      9077      9076      9078      9080      9079      9081
      9083      9082      9084      9086      9085      9087      9089      9088      9090
      9092      9091      9093      9095      9094      9096      9098      9097      9099
      9101      9100      9102      9104      9103      9105      9107      9106      9108
      9110      9109      9111      9113      9112      9114      9116      9115      9117
      9119      9118      9120      9122      9121      9123      9125      9124      9126
      9128      9127      9129      9131      9130      9132      9134      9133      9135
      9137      9136      9138      9140      9139      9141      9143      9142      9144
      9146      9145      9147      9149      9148      9150      9152      9151      9153
      9155      9154      9156      9158      9157      9159      9161      9160      9162
      9164      9163      9165      9167      9166      9168      9170      9169      9171
      9173      9172      9174      9176      9175      9177      9179      9178      9180
      9182      9181      9183      9185      9184      9186      9188      9187      9189
      9191      9190      9192      9194      9193      9195      9197      9196      9198
      9200      9199      9201      9203      9202      9204      9206      9205      9207
      9209      9208      9210      9212      9211      9213      9215      9214      9216
      9218      9217      9219      9221      9220      9222      9224      9223      9225
      9227      9226      9228      9230      9229      9231      9233      9232      9234
      9236      9235      9237      9239      9238      9240      9242      9241      9243
      9245      9244      9246      9248      9247      9249      9251      9250      9252
      9254      9253      9255      9257      9256      9258      9260      9259      9261
      9263      9262      9264      9266      9265      9267      9269      9268      9270
      9272      9271      9273      9275      9274      9276      9278      9277      9279
      9281      9280      9282      9284      9283      9285      9287      9286      9288
      9290      9289      9291      9293      9292      9294      9296      9295      9297
      9299      9298      9300      9302      9301      9303      9305      9304      9306
      9308      9307      9309      9311      9310      9312      9314      9313      9315
      9317      9316      9318      9320      9319      9321      9323      9322      9324
      9326      9325      9327      9329      9328      9330      9332      9331      9333
      9335      9334      9336      9338      9337      9339      9341      9340      9342
      9344      9343      9345      9347      9346      9348      9350      9349      9351
      9353      9352      9354      9356      9355      9357      9359      9358      9360
      9362      9361      9363      9365      9364      9366      9368      9367      9369
      9371      9370      9372      9374      9373      9375      9377      9376      9378
      9380      9379      9381      9383      9382      9384      9386      9385      9387
      9389      9388      9390      9392      9391      9393      9395      9394      9396
      9398      9397      9399      9401      9400      9402      9404      9403      9405
      9407      9406      9408      9410      9409      9411      9413      9412      9414
      9416      9415      9417      9419      9418      9420      9422      9421      9423
      9425      9424      9426      9428      9427      9429      9431      9430      9432
      9434      9433      9435      9437      9436      9438      9440      9439      9441
      9443      9442      9444      9446      9445      9447      9449      9448      9450
      9452      9451      9453      9455      9454      9456      9458      9457      9459
      9461      9460      9462      9464      9463      9465      9467      9466      9468
      9470      9469      9471      9473      9472      9474      9476      9475      9477
      9479      9478      9480      9482      9481      9483      9485      9484      9486
      9488      9487      9489      9491      9490      9492      9494      9493      9495
      9497      9496      9498      9500      9499      9501      9503      9502      9504
      9506      9505      9507      9509      9508      9510      9512      9511      9513
      9515      9514      9516      9518      9517      9519      9521      9520      9522
      9524      9523      9525      9527      9526      9528      9530      9529      9531
      9533      9532      9534      9536      9535      9537      9539      9538      9540
      9542      9541      9543      9545      9544      9546      9548      9547      9549
      9551      9550      9552      9554      9553      9555      9557      9556      9558
      9560      9559      9561      9563      9562      9564      9566      9565      9567
      9569      9568      9570      9572      9571      9573      9575      9574      9576
      9578      9577      9579      9581      9580      9582      9584      9583      9585
      9587      9586      9588      9590      9589      9591      9593      9592      9594
      9596      9595      9597      9599      9598      9600      9602      9601      9603
      9605      9604      9606      9608      9607      9609      9611      9610      9612
      9614      9613      9615      9617      9616      9618      9620      9619      9621
      9623      9622      9624      9626      9625      9627      9629      9628      9630
      9632      9631      9633      9635      9634      9636      9638      9637      9639
      9641      9640      9642      9644      9643      9645      9647      9646      9648
      9650      9649      9651      9653      9652      9654      9656      9655      9657
      9659      9658      9660      9662      9661      9663      9665      9664      9666
      9668      9667      9669      9671      9670      9672      9674      9673      9675
      9677      9676      9678      9680      9679      9681      9683      9682      9684
      9686      9685      9687      9689      9688      9690      9692      9691      9693
      9695      9694      9696      9698      9697      9699      9701      9700      9702
      9704      9703      9705      9707      9706      9708      9710      9709      9711
      9713      9712      9714      9716      9715      9717      9719      9718      9720
      9722      9721      9723      9725      9724      9726      9728      9727      9729
      9731      9730      9732      9734      9733      9735      9737      9736      9738
      9740      9739      9741      9743      9742      9744      9746      9745      9747
      9749      9748      9750      9752      9751      9753      9755      9754      9756
      9758      9757      9759      9761      9760      9762      9764      9763      9765
      9767      9766      9768      9770      9769      9771      9773      9772      9774
      9776      9775      9777      9779      9778      9780      9782      9781      9783
      9785      9784      9786      9788      9787      9789      9791      9790      9792
      9794      9793      9795      9797      9796      9798      9800      9799      9801
      9803      9802      9804      9806      9805      9807      9809      9808      9810
      9812      9811      9813      9815      9814      9816      9818      9817      9819
      9821      9820      9822      9824      9823      9825      9827      9826      9828
      9830      9829      9831      9833      9832      9834      9836      9835      9837
      9839      9838      9840      9842      9841      9843      9845      9844      9846
      9848      9847      9849      9851      9850      9852      9854      9853      9855
      9857      9856      9858      9860      9859      9861      9863      9862      9864
      9866      9865      9867      9869      9868      9870      9872      9871      9873
      9875      9874      9876      9878      9877      9879      9881      9880      9882
      9884      9883      9885      9887      9886      9888      9890      9889      9891
      9893      9892      9894      9896      9895      9897      9899      9898      9900
      9902      9901      9903      9905      9904      9906      9908      9907      9909
      9911      9910      9912      9914      9913      9915      9917      9916      9918
      9920      9919      9921      9923      9922      9924      9926      9925      9927
      9929      9928      9930      9932      9931      9933      9935      9934      9936
      9938      9937      9939      9941      9940      9942      9944      9943      9945
      9947      9946      9948      9950      9949      9951      9953      9952      9954
      9956      9955      9957      9959      9958      9960      9962      9961      9963
      9965      9964      9966      9968      9967      9969      9971      9970      9972
      9974      9973      9975      9977      9976      9978      9980      9979      9981
      9983      9982      9984      9986      9985      9987      9989      9988      9990
      9992      9991      9993      9995      9994      9996      9998      9997      9999
     10001     10000     10002     10004     10003     10005     10007     10006     10008
     10010     10009     10011     10013     10012     10014     10016     10015     10017
     10019     10018     10020     10022     10021     10023     10025     10024     10026
     10028     10027     10029     10031     10030     10032     10034     10033     10035
     10037     10036     10038     10040     10039     10041     10043     10042     10044
     10046     10045     10047     10049     10048     10050     10052     10051     10053
     10055     10054     10056     10058     10057     10059     10061     10060     10062
     10064     10063     10065     10067     10066     10068     10070     10069     10071
     10073     10072     10074     10076     10075     10077     10079     10078     10080
     10082     10081     10083     10085     10084     10086     10088     10087     10089
     10091     10090     10092     10094     10093     10095     10097     10096     10098
     10100     10099     10101     10103     10102     10104     10106     10105     10107
     10109     10108     10110     10112     10111     10113     10115     10114     10116
     10118     10117     10119     10121     10120     10122     10124     10123     10125
     10127     10126     10128     10130     10129     10131     10133     10132     10134
     10136     10135     10137     10139     10138     10140     10142     10141     10143
     10145     10144     10146     10148     10147     10149     10151     10150     10152
     10154     10153     10155     10157     10156     10158     10160     10159     10161
     10163     10162     10164     10166     10165     10167     10169     10168     10170
     10172     10171     10173     10175     10174     10176     10178     10177     10179
     10181     10180     10182     10184     10183     10185     10187     10186     10188
     10190     10189     10191     10193     10192     10194     10196     10195     10197
     10199     10198     10200     10202     10201     10203     10205     10204     10206
     10208     10207     10209     10211     10210     10212     10214     10213     10215
     10217     10216     10218     10220     10219     10221     10223     10222     10224
     10226     10225     10227     10229     10228     10230     10232     10231     10233
     10235     10234     10236     10238     10237     10239     10241     10240     10242
     10244     10243     10245     10247     10246     10248     10250     10249     10251
     10253     10252     10254     10256     10255     10257     10259     10258     10260
     10262     10261     10263     10265     10264     10266     10268     10267     10269
     10271     10270     10272     10274     10273     10275     10277     10276     10278
     10280     10279     10281     10283     10282     10284     10286     10285     10287
     10289     10288     10290     10292     10291     10293     10295     10294     10296
     10298     10297     10299     10301     10300     10302     10304     10303     10305
     10307     10306     10308     10310     10309     10311     10313     10312     10314
     10316     10315     10317     10319     10318     10320     10322     10321     10323
     10325     10324     10326     10328     10327     10329     10331     10330     10332
     10334     10333     10335     10337     10336     10338     10340     10339     10341
     10343     10342     10344     10346     10345     10347     10349     10348     10350
     10352     10351     10353     10355     10354     10356     10358     10357     10359
     10361     10360     10362     10364     10363     10365     10367     10366     10368
     10370     10369     10371     10373     10372     10374     10376     10375     10377
     10379     10378     10380     10382     10381     10383     10385     10384     10386
     10388     10387     10389     10391     10390     10392     10394     10393     10395
     10397     10396     10398     10400     10399     10401     10403     10402     10404
     10406     10405     10407     10409     10408     10410     10412     10411     10413
     10415     10414     10416     10418     10417     10419     10421     10420     10422
     10424     10423     10425     10427     10426     10428     10430     10429     10431
     10433     10432     10434     10436     10435     10437     10439     10438     10440
     10442     10441     10443     10445     10444     10446     10448     10447     10449
     10451     10450     10452     10454     10453     10455     10457     10456     10458
     10460     10459     10461     10463     10462     10464     10466     10465     10467
     10469     10468     10470     10472     10471     10473     10475     10474     10476
     10478     10477     10479     10481     10480     10482     10484     10483     10485
     10487     10486     10488     10490     10489     10491     10493     10492     10494
     10496     10495     10497     10499     10498     10500     10502     10501     10503
     10505     10504     10506     10508     10507     10509     10511     10510     10512
     10514     10513     10515     10517     10516     10518     10520     10519     10521
     10523     10522     10524     10526     10525     10527     10529     10528     10530
     10532     10531     10533     10535     10534     10536     10538     10537     10539
     10541     10540     10542     10544     10543     10545     10547     10546     10548
     10550     10549     10551     10553     10552     10554     10556     10555     10557
     10559     10558     10560     10562     10561     10563     10565     10564     10566
     10568     10567     10569     10571     10570     10572     10574     10573     10575
     10577     10576     10578     10580     10579     10581     10583     10582     10584
     10586     10585     10587     10589     10588     10590     10592     10591     10593
     10595     10594     10596     10598     10597     10599     10601     10600     10602
     10604     10603     10605     10607     10606     10608     10610     10609     10611
     10613     10612     10614     10616     10615     10617     10619     10618     10620
     10622     10621     10623     10625     10624     10626     10628     10627     10629
     10631     10630     10632     10634     10633     10635     10637     10636     10638
     10640     10639     10641     10643     10642     10644     10646     10645     10647
     10649     10648     10650     10652     10651     10653     10655     10654     10656
     10658     10657     10659     10661     10660     10662     10664     10663     10665
     10667     10666     10668     10670     10669     10671     10673     10672     10674
     10676     10675     10677     10679     10678     10680     10682     10681     10683
     10685     10684     10686     10688     10687     10689     10691     10690     10692
     10694     10693     10695     10697     10696     10698     10700     10699     10701
     10703     10702     10704     10706     10705     10707     10709     10708     10710
     10712     10711     10713     10715     10714     10716     10718     10717     10719
     10721     10720     10722     10724     10723     10725     10727     10726     10728
     10730     10729     10731     10733     10732     10734     10736     10735     10737
     10739     10738     10740     10742     10741     10743     10745     10744     10746
     10748     10747     10749     10751     10750     10752     10754     10753     10755
     10757     10756     10758     10760     10759     10761     10763     10762     10764
     10766     10765     10767     10769     10768     10770     10772     10771     10773
     10775     10774     10776     10778     10777     10779     10781     10780     10782
     10784     10783     10785     10787     10786     10788     10790     10789     10791
     10793     10792     10794     10796     10795     10797     10799     10798     10800
     10802     10801     10803     10805     10804     10806     10808     10807     10809
     10811     10810     10812     10814     10813     10815     10817     10816     10818
     10820     10819     10821     10823     10822     10824     10826     10825     10827
     10829     10828     10830     10832     10831     10833     10835     10834     10836
     10838     10837     10839     10841     10840     10842     10844     10843     10845
     10847     10846     10848     10850     10849     10851     10853     10852     10854
     10856     10855     10857     10859     10858     10860     10862     10861     10863
     10865     10864     10866     10868     10867     10869     10871     10870     10872
     10874     10873     10875     10877     10876     10878     10880     10879     10881
     10883     10882     10884     10886     10885     10887     10889     10888     10890
     10892     10891     10893     10895     10894     10896     10898     10897     10899
     10901     10900     10902     10904     10903     10905     10907     10906     10908
     10910     10909     10911     10913     10912     10914     10916     10915     10917
     10919     10918     10920     10922     10921     10923     10925     10924     10926
     10928     10927     10929     10931     10930     10932     10934     10933     10935
     10937     10936     10938     10940     10939     10941     10943     10942     10944
     10946     10945     10947     10949     10948     10950     10952     10951     10953
     10955     10954     10956     10958     10957     10959     10961     10960     10962
     10964     10963     10965     10967     10966     10968     10970     10969     10971
     10973     10972     10974     10976     10975     10977     10979     10978     10980
     10982     10981     10983     10985     10984     10986     10988     10987     10989
     10991     10990     10992     10994     10993     10995     10997     10996     10998
     11000     10999     11001     11003     11002     11004     11006     11005     11007
     11009     11008     11010     11012     11011     11013     11015     11014     11016
     11018     11017     11019     11021     11020     11022     11024     11023     11025
     11027     11026     11028     11030     11029     11031     11033     11032     11034
     11036     11035     11037     11039     11038     11040     11042     11041     11043
     11045     11044     11046     11048     11047     11049     11051     11050     11052
     11054     11053     11055     11057     11056     11058     11060     11059     11061
     11063     11062     11064     11066     11065     11067     11069     11068     11070
     11072     11071     11073     11075     11074     11076     11078     11077     11079
     11081     11080     11082     11084     11083     11085     11087     11086     11088
     11090     11089     11091     11093     11092     11094     11096     11095     11097
     11099     11098     11100     11102     11101     11103     11105     11104     11106
     11108     11107     11109     11111     11110     11112     11114     11113     11115
     11117     11116     11118     11120     11119     11121     11123     11122     11124
     11126     11125     11127     11129     11128     11130     11132     11131     11133
     11135     11134     11136     11138     11137     11139     11141     11140     11142
     11144     11143     11145     11147     11146     11148     11150     11149     11151
     11153     11152     11154     11156     11155     11157     11159     11158     11160
     11162     11161     11163     11165     11164     11166     11168     11167     11169
     11171     11170     11172     11174     11173     11175     11177     11176     11178
     11180     11179     11181     11183     11182     11184     11186     11185     11187
     11189     11188     11190     11192     11191     11193     11195     11194     11196
     11198     11197     11199     11201     11200     11202     11204     11203     11205
     11207     11206     11208     11210     11209     11211     11213     11212     11214
     11216     11215     11217     11219     11218     11220     11222     11221     11223
     11225     11224     11226     11228     11227     11229     11231     11230     11232
     11234     11233     11235     11237     11236     11238     11240     11239     11241
     11243     11242     11244     11246     11245     11247     11249     11248     11250
     11252     11251     11253     11255     11254     11256     11258     11257     11259
     11261     11260     11262     11264     11263     11265     11267     11266     11268
     11270     11269     11271     11273     11272     11274     11276     11275     11277
     11279     11278     11280     11282     11281     11283     11285     11284     11286
     11288     11287     11289     11291     11290     11292     11294     11293     11295
     11297     11296     11298     11300     11299     11301     11303     11302     11304
     11306     11305     11307     11309     11308     11310     11312     11311     11313
     11315     11314     11316     11318     11317     11319     11321     11320     11322
     11324     11323     11325     11327     11326     11328     11330     11329     11331
     11333     11332     11334     11336     11335     11337     11339     11338     11340
     11342     11341     11343     11345     11344     11346     11348     11347     11349
     11351     11350     11352     11354     11353     11355     11357     11356     11358
     11360     11359     11361     11363     11362     11364     11366     11365     11367
     11369     11368     11370     11372     11371     11373     11375     11374     11376
     11378     11377     11379     11381     11380     11382     11384     11383     11385
     11387     11386     11388     11390     11389     11391     11393     11392     11394
     11396     11395     11397     11399     11398     11400     11402     11401     11403
     11405     11404     11406     11408     11407     11409     11411     11410     11412
     11414     11413     11415     11417     11416     11418     11420     11419     11421
     11423     11422     11424     11426     11425     11427     11429     11428     11430
     11432     11431     11433     11435     11434     11436     11438     11437     11439
     11441     11440     11442     11444     11443     11445     11447     11446     11448
     11450     11449     11451     11453     11452     11454     11456     11455     11457
     11459     11458     11460     11462     11461     11463     11465     11464     11466
     11468     11467     11469     11471     11470     11472     11474     11473     11475
     11477     11476     11478     11480     11479     11481     11483     11482     11484
     11486     11485     11487     11489     11488     11490     11492     11491     11493
     11495     11494     11496     11498     11497     11499     11501     11500     11502
     11504     11503     11505     11507     11506     11508     11510     11509     11511
     11513     11512     11514     11516     11515     11517     11519     11518     11520
     11522     11521     11523     11525     11524     11526     11528     11527     11529
     11531     11530     11532     11534     11533     11535     11537     11536     11538
     11540     11539     11541     11543     11542     11544     11546     11545     11547
     11549     11548     11550     11552     11551     11553     11555     11554     11556
     11558     11557     11559     11561     11560     11562     11564     11563     11565
     11567     11566     11568     11570     11569     11571     11573     11572     11574
     11576     11575     11577     11579     11578     11580     11582     11581     11583
     11585     11584     11586     11588     11587     11589     11591     11590     11592
     11594     11593     11595     11597     11596     11598     11600     11599     11601
     11603     11602     11604     11606     11605     11607     11609     11608     11610
     11612     11611     11613     11615     11614     11616     11618     11617     11619
     11621     11620     11622     11624     11623     11625     11627     11626     11628
     11630     11629     11631     11633     11632     11634     11636     11635     11637
     11639     11638     11640     11642     11641     11643     11645     11644     11646
     11648     11647     11649     11651     11650     11652     11654     11653     11655
     11657     11656     11658     11660     11659     11661     11663     11662     11664
     11666     11665     11667     11669     11668     11670     11672     11671     11673
     11675     11674     11676     11678     11677     11679     11681     11680     11682
     11684     11683     11685     11687     11686     11688     11690     11689     11691
     11693     11692     11694     11696     11695     11697     11699     11698     11700
     11702     11701     11703     11705     11704     11706     11708     11707     11709
     11711     11710     11712     11714     11713     11715     11717     11716     11718
     11720     11719     11721     11723     11722     11724     11726     11725     11727
     11729     11728     11730     11732     11731     11733     11735     11734     11736
     11738     11737     11739     11741     11740     11742     11744     11743     11745
     11747     11746     11748     11750     11749     11751     11753     11752     11754
     11756     11755     11757     11759     11758     11760     11762     11761     11763
     11765     11764     11766     11768     11767     11769     11771     11770     11772
     11774     11773     11775     11777     11776     11778     11780     11779     11781
     11783     11782     11784     11786     11785     11787     11789     11788     11790
     11792     11791     11793     11795     11794     11796     11798     11797     11799
     11801     11800     11802     11804     11803     11805     11807     11806     11808
     11810     11809     11811     11813     11812     11814     11816     11815     11817
     11819     11818     11820     11822     11821     11823     11825     11824     11826
     11828     11827     11829     11831     11830     11832     11834     11833     11835
     11837     11836     11838     11840     11839     11841     11843     11842     11844
     11846     11845     11847     11849     11848     11850     11852     11851     11853
     11855     11854     11856     11858     11857     11859     11861     11860     11862
     11864     11863     11865     11867     11866     11868     11870     11869     11871
     11873     11872     11874     11876     11875     11877     11879     11878     11880
     11882     11881     11883     11885     11884     11886     11888     11887     11889
     11891     11890     11892     11894     11893     11895     11897     11896     11898
     11900     11899     11901     11903     11902     11904     11906     11905     11907
     11909     11908     11910     11912     11911     11913     11915     11914     11916
     11918     11917     11919     11921     11920     11922     11924     11923     11925
     11927     11926     11928     11930     11929     11931     11933     11932     11934
     11936     11935     11937     11939     11938     11940     11942     11941     11943
     11945     11944     11946     11948     11947     11949     11951     11950     11952
     11954     11953     11955     11957     11956     11958     11960     11959     11961
     11963     11962     11964     11966     11965     11967     11969     11968     11970
     11972     11971     11973     11975     11974     11976     11978     11977     11979
     11981     11980     11982     11984     11983     11985     11987     11986     11988
     11990     11989     11991     11993     11992     11994     11996     11995     11997
     11999     11998     12000     12002     12001     12003     12005     12004     12006
     12008     12007     12009     12011     12010     12012     12014     12013     12015
     12017     12016     12018     12020     12019     12021     12023     12022     12024
     12026     12025     12027     12029     12028     12030     12032     12031     12033
     12035     12034     12036     12038     12037     12039     12041     12040     12042
     12044     12043     12045     12047     12046     12048     12050     12049     12051
     12053     12052     12054     12056     12055     12057     12059     12058     12060
     12062     12061     12063     12065     12064     12066     12068     12067     12069
     12071     12070     12072     12074     12073     12075     12077     12076     12078
     12080     12079     12081     12083     12082     12084     12086     12085     12087
     12089     12088     12090     12092     12091     12093     12095     12094     12096
     12098     12097     12099     12101     12100     12102     12104     12103     12105
     12107     12106     12108     12110     12109     12111     12113     12112     12114
     12116     12115     12117     12119     12118     12120     12122     12121     12123
     12125     12124     12126     12128     12127     12129     12131     12130     12132
     12134     12133     12135     12137     12136     12138     12140     12139     12141
     12143     12142     12144     12146     12145     12147     12149     12148     12150
     12152     12151     12153     12155     12154     12156     12158     12157     12159
     12161     12160     12162     12164     12163     12165     12167     12166     12168
     12170     12169     12171     12173     12172     12174     12176     12175     12177
     12179     12178     12180     12182     12181     12183     12185     12184     12186
     12188     12187     12189     12191     12190     12192     12194     12193     12195
     12197     12196     12198     12200     12199     12201     12203     12202     12204
     12206     12205     12207     12209     12208     12210     12212     12211     12213
     12215     12214     12216     12218     12217     12219     12221     12220     12222
     12224     12223     12225     12227     12226     12228     12230     12229     12231
     12233     12232     12234     12236     12235     12237     12239     12238     12240
     12242     12241     12243     12245     12244     12246     12248     12247     12249
     12251     12250     12252     12254     12253     12255     12257     12256     12258
     12260     12259     12261     12263     12262     12264     12266     12265     12267
     12269     12268     12270     12272     12271     12273     12275     12274     12276
     12278     12277     12279     12281     12280     12282     12284     12283     12285
     12287     12286     12288     12290     12289     12291     12293     12292     12294
     12296     12295     12297     12299     12298     12300     12302     12301     12303
     12305     12304     12306     12308     12307     12309     12311     12310     12312
     12314     12313     12315     12317     12316     12318     12320     12319     12321
     12323     12322     12324     12326     12325     12327     12329     12328     12330
     12332     12331     12333     12335     12334     12336     12338     12337     12339
     12341     12340     12342     12344     12343     12345     12347     12346     12348
     12350     12349     12351     12353     12352     12354     12356     12355     12357
     12359     12358     12360     12362     12361     12363     12365     12364     12366
     12368     12367     12369     12371     12370     12372     12374     12373     12375
     12377     12376     12378     12380     12379     12381     12383     12382     12384
     12386     12385     12387     12389     12388     12390     12392     12391     12393
     12395     12394     12396     12398     12397     12399     12401     12400     12402
     12404     12403     12405     12407     12406     12408     12410     12409     12411
     12413     12412     12414     12416     12415     12417     12419     12418     12420
     12422     12421     12423     12425     12424     12426     12428     12427     12429
     12431     12430     12432     12434     12433     12435     12437     12436     12438
     12440     12439     12441     12443     12442     12444     12446     12445     12447
     12449     12448     12450     12452     12451     12453     12455     12454     12456
     12458     12457     12459     12461     12460     12462     12464     12463     12465
     12467     12466     12468     12470     12469     12471     12473     12472     12474
     12476     12475     12477     12479     12478     12480     12482     12481     12483
     12485     12484     12486     12488     12487     12489     12491     12490     12492
     12494     12493     12495     12497     12496     12498     12500     12499     12501
     12503     12502     12504     12506     12505     12507     12509     12508     12510
     12512     12511     12513     12515     12514     12516     12518     12517     12519
     12521     12520     12522     12524     12523     12525     12527     12526     12528
     12530     12529     12531     12533     12532     12534     12536     12535     12537
     12539     12538     12540     12542     12541     12543     12545     12544     12546
     12548     12547     12549     12551     12550     12552     12554     12553     12555
     12557     12556     12558     12560     12559     12561     12563     12562     12564
     12566     12565     12567     12569     12568     12570     12572     12571     12573
     12575     12574     12576     12578     12577     12579     12581     12580     12582
     12584     12583     12585     12587     12586     12588     12590     12589     12591
     12593     12592     12594     12596     12595     12597     12599     12598     12600
     12602     12601     12603     12605     12604     12606     12608     12607     12609
     12611     12610     12612     12614     12613     12615     12617     12616     12618
     12620     12619     12621     12623     12622     12624     12626     12625     12627
     12629     12628     12630     12632     12631     12633     12635     12634     12636
     12638     12637     12639     12641     12640     12642     12644     12643     12645
     12647     12646     12648     12650     12649     12651     12653     12652     12654
     12656     12655     12657     12659     12658     12660     12662     12661     12663
     12665     12664     12666     12668     12667     12669     12671     12670     12672
     12674     12673     12675     12677     12676     12678     12680     12679     12681
     12683     12682     12684     12686     12685     12687     12689     12688     12690
     12692     12691     12693     12695     12694     12696     12698     12697     12699
     12701     12700     12702     12704     12703     12705     12707     12706     12708
     12710     12709     12711     12713     12712     12714     12716     12715     12717
     12719     12718     12720     12722     12721     12723     12725     12724     12726
     12728     12727     12729     12731     12730     12732     12734     12733     12735
     12737     12736     12738     12740     12739     12741     12743     12742     12744
     12746     12745     12747     12749     12748     12750     12752     12751     12753
     12755     12754     12756     12758     12757     12759     12761     12760     12762
     12764     12763     12765     12767     12766     12768     12770     12769     12771
     12773     12772     12774     12776     12775     12777     12779     12778     12780
     12782     12781     12783     12785     12784     12786     12788     12787     12789
     12791     12790     12792     12794     12793     12795     12797     12796     12798
     12800     12799     12801     12803     12802     12804     12806     12805     12807
     12809     12808     12810     12812     12811     12813     12815     12814     12816
     12818     12817     12819     12821     12820     12822     12824     12823     12825
     12827     12826     12828     12830     12829     12831     12833     12832     12834
     12836     12835     12837     12839     12838     12840     12842     12841     12843
     12845     12844     12846     12848     12847     12849     12851     12850     12852
     12854     12853     12855     12857     12856     12858     12860     12859     12861
     12863     12862     12864     12866     12865     12867     12869     12868     12870
     12872     12871     12873     12875     12874     12876     12878     12877     12879
     12881     12880     12882     12884     12883     12885     12887     12886     12888
     12890     12889     12891     12893     12892     12894     12896     12895     12897
     12899     12898     12900     12902     12901     12903     12905     12904     12906
     12908     12907     12909     12911     12910     12912     12914     12913     12915
     12917     12916     12918     12920     12919     12921     12923     12922     12924
     12926     12925     12927     12929     12928     12930     12932     12931     12933
     12935     12934     12936     12938     12937     12939     12941     12940     12942
     12944     12943     12945     12947     12946     12948     12950     12949     12951
     12953     12952     12954     12956     12955     12957     12959     12958     12960
     12962     12961     12963     12965     12964     12966     12968     12967     12969
     12971     12970     12972     12974     12973     12975     12977     12976     12978
     12980     12979     12981     12983     12982     12984     12986     12985     12987
     12989     12988     12990     12992     12991     12993     12995     12994     12996
     12998     12997     12999     13001     13000     13002     13004     13003     13005
     13007     13006     13008     13010     13009     13011     13013     13012     13014
     13016     13015     13017     13019     13018     13020     13022     13021     13023
     13025     13024     13026     13028     13027     13029     13031     13030     13032
     13034     13033     13035     13037     13036     13038     13040     13039     13041
     13043     13042     13044     13046     13045     13047     13049     13048     13050
     13052     13051     13053     13055     13054     13056     13058     13057     13059
     13061     13060     13062     13064     13063     13065     13067     13066     13068
     13070     13069     13071     13073     13072     13074     13076     13075     13077
     13079     13078     13080     13082     13081     13083     13085     13084     13086
     13088     13087     13089     13091     13090     13092     13094     13093     13095
     13097     13096     13098     13100     13099     13101     13103     13102     13104
     13106     13105     13107     13109     13108     13110     13112     13111     13113
     13115     13114     13116     13118     13117     13119     13121     13120     13122
     13124     13123     13125     13127     13126     13128     13130     13129     13131
     13133     13132     13134     13136     13135     13137     13139     13138     13140
     13142     13141     13143     13145     13144     13146     13148     13147     13149
     13151     13150     13152     13154     13153     13155     13157     13156     13158
     13160     13159     13161     13163     13162     13164     13166     13165     13167
     13169     13168     13170     13172     13171     13173     13175     13174     13176
     13178     13177     13179     13181     13180     13182     13184     13183     13185
     13187     13186     13188     13190     13189     13191     13193     13192     13194
     13196     13195     13197     13199     13198     13200     13202     13201     13203
     13205     13204     13206     13208     13207     13209     13211     13210     13212
     13214     13213     13215     13217     13216     13218     13220     13219     13221
     13223     13222     13224     13226     13225     13227     13229     13228     13230
     13232     13231     13233     13235     13234     13236     13238     13237     13239
     13241     13240     13242     13244     13243     13245     13247     13246     13248
     13250     13249     13251     13253     13252     13254     13256     13255     13257
     13259     13258     13260     13262     13261     13263     13265     13264     13266
     13268     13267     13269     13271     13270     13272     13274     13273     13275
     13277     13276     13278     13280     13279     13281     13283     13282     13284
     13286     13285     13287     13289     13288     13290     13292     13291     13293
     13295     13294     13296     13298     13297     13299     13301     13300     13302
     13304     13303     13305     13307     13306     13308     13310     13309     13311
     13313     13312     13314     13316     13315     13317     13319     13318     13320
     13322     13321     13323     13325     13324     13326     13328     13327     13329
     13331     13330     13332     13334     13333     13335     13337     13336     13338
     13340     13339     13341     13343     13342     13344     13346     13345     13347
     13349     13348     13350     13352     13351     13353     13355     13354     13356
     13358     13357     13359     13361     13360     13362     13364     13363     13365
     13367     13366     13368     13370     13369     13371     13373     13372     13374
     13376     13375     13377     13379     13378     13380     13382     13381     13383
     13385     13384     13386     13388     13387     13389     13391     13390     13392
     13394     13393     13395     13397     13396     13398     13400     13399     13401
     13403     13402     13404     13406     13405     13407     13409     13408     13410
     13412     13411     13413     13415     13414     13416     13418     13417     13419
     13421     13420     13422     13424     13423     13425     13427     13426     13428
     13430     13429     13431     13433     13432     13434     13436     13435     13437
     13439     13438     13440     13442     13441     13443     13445     13444     13446
     13448     13447     13449     13451     13450     13452     13454     13453     13455
     13457     13456     13458     13460     13459     13461     13463     13462     13464
     13466     13465     13467     13469     13468     13470     13472     13471     13473
     13475     13474     13476     13478     13477     13479     13481     13480     13482
     13484     13483     13485     13487     13486     13488     13490     13489     13491
     13493     13492     13494     13496     13495     13497     13499     13498     13500
     13502     13501     13503     13505     13504     13506     13508     13507     13509
     13511     13510     13512     13514     13513     13515     13517     13516     13518
     13520     13519     13521     13523     13522     13524     13526     13525     13527
     13529     13528     13530     13532     13531     13533     13535     13534     13536
     13538     13537     13539     13541     13540     13542     13544     13543     13545
     13547     13546     13548     13550     13549     13551     13553     13552     13554
     13556     13555     13557     13559     13558     13560     13562     13561     13563
     13565     13564     13566     13568     13567     13569     13571     13570     13572
     13574     13573     13575     13577     13576     13578     13580     13579     13581
     13583     13582     13584     13586     13585     13587     13589     13588     13590
     13592     13591     13593     13595     13594     13596     13598     13597     13599
     13601     13600     13602     13604     13603     13605     13607     13606     13608
     13610     13609     13611     13613     13612     13614     13616     13615     13617
     13619     13618     13620     13622     13621     13623     13625     13624     13626
     13628     13627     13629     13631     13630     13632     13634     13633     13635
     13637     13636     13638     13640     13639     13641     13643     13642     13644
     13646     13645     13647     13649     13648     13650     13652     13651     13653
     13655     13654     13656     13658     13657     13659     13661     13660     13662
     13664     13663     13665     13667     13666     13668     13670     13669     13671
     13673     13672     13674     13676     13675     13677     13679     13678     13680
     13682     13681     13683     13685     13684     13686     13688     13687     13689
     13691     13690     13692     13694     13693     13695     13697     13696     13698
     13700     13699     13701     13703     13702     13704     13706     13705     13707
     13709     13708     13710     13712     13711     13713     13715     13714     13716
     13718     13717     13719     13721     13720     13722     13724     13723     13725
     13727     13726     13728     13730     13729     13731     13733     13732     13734
     13736     13735     13737     13739     13738     13740     13742     13741     13743
     13745     13744     13746     13748     13747     13749     13751     13750     13752
     13754     13753     13755     13757     13756     13758     13760     13759     13761
     13763     13762     13764     13766     13765     13767     13769     13768     13770
     13772     13771     13773     13775     13774     13776     13778     13777     13779
     13781     13780     13782     13784     13783     13785     13787     13786     13788
     13790     13789     13791     13793     13792     13794     13796     13795     13797
     13799     13798     13800     13802     13801     13803     13805     13804     13806
     13808     13807     13809     13811     13810     13812     13814     13813     13815
     13817     13816     13818     13820     13819     13821     13823     13822     13824
     13826     13825     13827     13829     13828     13830     13832     13831     13833
     13835     13834     13836     13838     13837     13839     13841     13840     13842
     13844     13843     13845     13847     13846     13848     13850     13849     13851
     13853     13852     13854     13856     13855     13857     13859     13858     13860
     13862     13861     13863     13865     13864     13866     13868     13867     13869
     13871     13870     13872     13874     13873     13875     13877     13876     13878
     13880     13879     13881     13883     13882     13884     13886     13885     13887
     13889     13888     13890     13892     13891     13893     13895     13894     13896
     13898     13897     13899     13901     13900     13902     13904     13903     13905
     13907     13906     13908     13910     13909     13911     13913     13912     13914
     13916     13915     13917     13919     13918     13920     13922     13921     13923
     13925     13924     13926     13928     13927     13929     13931     13930     13932
     13934     13933     13935     13937     13936     13938     13940     13939     13941
     13943     13942     13944     13946     13945     13947     13949     13948     13950
     13952     13951     13953     13955     13954     13956     13958     13957     13959
     13961     13960     13962     13964     13963     13965     13967     13966     13968
     13970     13969     13971     13973     13972     13974     13976     13975     13977
     13979     13978     13980     13982     13981     13983     13985     13984     13986
     13988     13987     13989     13991     13990     13992     13994     13993     13995
     13997     13996     13998     14000     13999     14001     14003     14002     14004
     14006     14005     14007     14009     14008     14010     14012     14011     14013
     14015     14014     14016     14018     14017     14019     14021     14020     14022
     14024     14023     14025     14027     14026     14028     14030     14029     14031
     14033     14032     14034     14036     14035     14037     14039     14038     14040
     14042     14041     14043     14045     14044     14046     14048     14047     14049
     14051     14050     14052     14054     14053     14055     14057     14056     14058
     14060     14059     14061     14063     14062     14064     14066     14065     14067
     14069     14068     14070     14072     14071     14073     14075     14074     14076
     14078     14077     14079     14081     14080     14082     14084     14083     14085
     14087     14086     14088     14090     14089     14091     14093     14092     14094
     14096     14095     14097     14099     14098     14100     14102     14101     14103
     14105     14104     14106     14108     14107     14109     14111     14110     14112
     14114     14113     14115     14117     14116     14118     14120     14119     14121
     14123     14122     14124     14126     14125     14127     14129     14128     14130
     14132     14131     14133     14135     14134     14136     14138     14137     14139
     14141     14140     14142     14144     14143     14145     14147     14146     14148
     14150     14149     14151     14153     14152     14154     14156     14155     14157
     14159     14158     14160     14162     14161     14163     14165     14164     14166
     14168     14167     14169     14171     14170     14172     14174     14173     14175
     14177     14176     14178     14180     14179     14181     14183     14182     14184
     14186     14185     14187     14189     14188     14190     14192     14191     14193
     14195     14194     14196     14198     14197     14199     14201     14200     14202
     14204     14203     14205     14207     14206     14208     14210     14209     14211
     14213     14212     14214     14216     14215     14217     14219     14218     14220
     14222     14221     14223     14225     14224     14226     14228     14227     14229
     14231     14230     14232     14234     14233     14235     14237     14236     14238
     14240     14239     14241     14243     14242     14244     14246     14245     14247
     14249     14248     14250     14252     14251     14253     14255     14254     14256
     14258     14257     14259     14261     14260     14262     14264     14263     14265
     14267     14266     14268     14270     14269     14271     14273     14272     14274
     14276     14275     14277     14279     14278     14280     14282     14281     14283
     14285     14284     14286     14288     14287     14289     14291     14290     14292
     14294     14293     14295     14297     14296     14298     14300     14299     14301
     14303     14302     14304     14306     14305     14307     14309     14308     14310
     14312     14311     14313     14315     14314     14316     14318     14317     14319
     14321     14320     14322     14324     14323     14325     14327     14326     14328
     14330     14329     14331     14333     14332     14334     14336     14335     14337
     14339     14338     14340     14342     14341     14343     14345     14344     14346
     14348     14347     14349     14351     14350     14352     14354     14353     14355
     14357     14356     14358     14360     14359     14361     14363     14362     14364
     14366     14365     14367     14369     14368     14370     14372     14371     14373
     14375     14374     14376     14378     14377     14379     14381     14380     14382
     14384     14383     14385     14387     14386     14388     14390     14389     14391
     14393     14392     14394     14396     14395     14397     14399     14398     14400
     14402     14401     14403     14405     14404     14406     14408     14407     14409
     14411     14410     14412     14414     14413     14415     14417     14416     14418
     14420     14419     14421     14423     14422     14424     14426     14425     14427
     14429     14428     14430     14432     14431     14433     14435     14434     14436
     14438     14437     14439     14441     14440     14442     14444     14443     14445
     14447     14446     14448     14450     14449     14451     14453     14452     14454
     14456     14455     14457     14459     14458     14460     14462     14461     14463
     14465     14464     14466     14468     14467     14469     14471     14470     14472
     14474     14473     14475     14477     14476     14478     14480     14479     14481
     14483     14482     14484     14486     14485     14487     14489     14488     14490
     14492     14491     14493     14495     14494     14496     14498     14497     14499
     14501     14500     14502     14504     14503     14505     14507     14506     14508
     14510     14509     14511     14513     14512     14514     14516     14515     14517
     14519     14518     14520     14522     14521     14523     14525     14524     14526
     14528     14527     14529     14531     14530     14532     14534     14533     14535
     14537     14536     14538     14540     14539     14541     14543     14542     14544
     14546     14545     14547     14549     14548     14550     14552     14551     14553
     14555     14554     14556     14558     14557     14559     14561     14560     14562
     14564     14563     14565     14567     14566     14568     14570     14569     14571
     14573     14572     14574     14576     14575     14577     14579     14578     14580
     14582     14581     14583     14585     14584     14586     14588     14587     14589
     14591     14590     14592     14594     14593     14595     14597     14596     14598
     14600     14599     14601     14603     14602     14604     14606     14605     14607
     14609     14608     14610     14612     14611     14613     14615     14614     14616
     14618     14617     14619     14621     14620     14622     14624     14623     14625
     14627     14626     14628     14630     14629     14631     14633     14632     14634
     14636     14635     14637     14639     14638     14640     14642     14641     14643
     14645     14644     14646     14648     14647     14649     14651     14650     14652
     14654     14653     14655     14657     14656     14658     14660     14659     14661
     14663     14662     14664     14666     14665     14667     14669     14668     14670
     14672     14671     14673     14675     14674     14676     14678     14677     14679
     14681     14680     14682     14684     14683     14685     14687     14686     14688
     14690     14689     14691     14693     14692     14694     14696     14695     14697
     14699     14698     14700     14702     14701     14703     14705     14704     14706
     14708     14707     14709     14711     14710     14712     14714     14713     14715
     14717     14716     14718     14720     14719     14721     14723     14722     14724
     14726     14725     14727     14729     14728     14730     14732     14731     14733
     14735     14734     14736     14738     14737     14739     14741     14740     14742
     14744     14743     14745     14747     14746     14748     14750     14749     14751
     14753     14752     14754     14756     14755     14757     14759     14758     14760
     14762     14761     14763     14765     14764     14766     14768     14767     14769
     14771     14770     14772     14774     14773     14775     14777     14776     14778
     14780     14779     14781     14783     14782     14784     14786     14785     14787
     14789     14788     14790     14792     14791     14793     14795     14794     14796
     14798     14797     14799     14801     14800     14802     14804     14803     14805
     14807     14806     14808     14810     14809     14811     14813     14812     14814
     14816     14815     14817     14819     14818     14820     14822     14821     14823
     14825     14824     14826     14828     14827     14829     14831     14830     14832
     14834     14833     14835     14837     14836     14838     14840     14839     14841
     14843     14842     14844     14846     14845     14847     14849     14848     14850
     14852     14851     14853     14855     14854     14856     14858     14857     14859
     14861     14860     14862     14864     14863     14865     14867     14866     14868
     14870     14869     14871     14873     14872     14874     14876     14875     14877
     14879     14878     14880     14882     14881     14883     14885     14884     14886
     14888     14887     14889     14891     14890     14892     14894     14893     14895
     14897     14896     14898     14900     14899     14901     14903     14902     14904
     14906     14905     14907     14909     14908     14910     14912     14911     14913
     14915     14914     14916     14918     14917     14919     14921     14920     14922
     14924     14923     14925     14927     14926     14928     14930     14929     14931
     14933     14932     14934     14936     14935     14937     14939     14938     14940
     14942     14941     14943     14945     14944     14946     14948     14947     14949
     14951     14950     14952     14954     14953     14955     14957     14956     14958
     14960     14959     14961     14963     14962     14964     14966     14965     14967
     14969     14968     14970     14972     14971     14973     14975     14974     14976
     14978     14977     14979     14981     14980     14982     14984     14983     14985
     14987     14986     14988     14990     14989     14991     14993     14992     14994
     14996     14995     14997     14999     14998     15000     15002     15001     15003
     15005     15004     15006     15008     15007     15009     15011     15010     15012
     15014     15013     15015     15017     15016     15018     15020     15019     15021
     15023     15022     15024     15026     15025     15027     15029     15028     15030
     15032     15031     15033     15035     15034     15036     15038     15037     15039
     15041     15040     15042     15044     15043     15045     15047     15046     15048
     15050     15049     15051     15053     15052     15054     15056     15055     15057
     15059     15058     15060     15062     15061     15063     15065     15064     15066
     15068     15067     15069     15071     15070     15072     15074     15073     15075
     15077     15076     15078     15080     15079     15081     15083     15082     15084
     15086     15085     15087     15089     15088     15090     15092     15091     15093
     15095     15094     15096     15098     15097     15099     15101     15100     15102
     15104     15103     15105     15107     15106     15108     15110     15109     15111
     15113     15112     15114     15116     15115     15117     15119     15118     15120
     15122     15121     15123     15125     15124     15126     15128     15127     15129
     15131     15130     15132     15134     15133     15135     15137     15136     15138
     15140     15139     15141     15143     15142     15144     15146     15145     15147
     15149     15148     15150     15152     15151     15153     15155     15154     15156
     15158     15157     15159     15161     15160     15162     15164     15163     15165
     15167     15166     15168     15170     15169     15171     15173     15172     15174
     15176     15175     15177     15179     15178     15180     15182     15181     15183
     15185     15184     15186     15188     15187     15189     15191     15190     15192
     15194     15193     15195     15197     15196     15198     15200     15199     15201
     15203     15202     15204     15206     15205     15207     15209     15208     15210
     15212     15211     15213     15215     15214     15216     15218     15217     15219
     15221     15220     15222     15224     15223     15225     15227     15226     15228
     15230     15229     15231     15233     15232     15234     15236     15235     15237
     15239     15238     15240     15242     15241     15243     15245     15244     15246
     15248     15247     15249     15251     15250     15252     15254     15253     15255
     15257     15256     15258     15260     15259     15261     15263     15262     15264
     15266     15265     15267     15269     15268     15270     15272     15271     15273
     15275     15274     15276     15278     15277     15279     15281     15280     15282
     15284     15283     15285     15287     15286     15288     15290     15289     15291
     15293     15292     15294     15296     15295     15297     15299     15298     15300
     15302     15301     15303     15305     15304     15306     15308     15307     15309
     15311     15310     15312     15314     15313     15315     15317     15316     15318
     15320     15319     15321     15323     15322     15324     15326     15325     15327
     15329     15328     15330     15332     15331     15333     15335     15334     15336
     15338     15337     15339     15341     15340     15342     15344     15343     15345
     15347     15346     15348     15350     15349     15351     15353     15352     15354
     15356     15355     15357     15359     15358     15360     15362     15361     15363
     15365     15364     15366     15368     15367     15369     15371     15370     15372
     15374     15373     15375     15377     15376     15378     15380     15379     15381
     15383     15382     15384     15386     15385     15387     15389     15388     15390
     15392     15391     15393     15395     15394     15396     15398     15397     15399
     15401     15400     15402     15404     15403     15405     15407     15406     15408
     15410     15409     15411     15413     15412     15414     15416     15415     15417
     15419     15418     15420     15422     15421     15423     15425     15424     15426
     15428     15427     15429     15431     15430     15432     15434     15433     15435
     15437     15436     15438     15440     15439     15441     15443     15442     15444
     15446     15445     15447     15449     15448     15450     15452     15451     15453
     15455     15454     15456     15458     15457     15459     15461     15460     15462
     15464     15463     15465     15467     15466     15468     15470     15469     15471
     15473     15472     15474     15476     15475     15477     15479     15478     15480
     15482     15481     15483     15485     15484     15486     15488     15487     15489
     15491     15490     15492     15494     15493     15495     15497     15496     15498
     15500     15499     15501     15503     15502     15504     15506     15505     15507
     15509     15508     15510     15512     15511     15513     15515     15514     15516
     15518     15517     15519     15521     15520     15522     15524     15523     15525
     15527     15526     15528     15530     15529     15531     15533     15532     15534
     15536     15535     15537     15539     15538     15540     15542     15541     15543
     15545     15544     15546     15548     15547     15549     15551     15550     15552
     15554     15553     15555     15557     15556     15558     15560     15559     15561
     15563     15562     15564     15566     15565     15567     15569     15568     15570
     15572     15571     15573     15575     15574     15576     15578     15577     15579
     15581     15580     15582     15584     15583     15585     15587     15586     15588
     15590     15589     15591     15593     15592     15594     15596     15595     15597
     15599     15598     15600     15602     15601     15603     15605     15604     15606
     15608     15607     15609     15611     15610     15612     15614     15613     15615
     15617     15616     15618     15620     15619     15621     15623     15622     15624
     15626     15625     15627     15629     15628     15630     15632     15631     15633
     15635     15634     15636     15638     15637     15639     15641     15640     15642
     15644     15643     15645     15647     15646     15648     15650     15649     15651
     15653     15652     15654     15656     15655     15657     15659     15658     15660
     15662     15661     15663     15665     15664     15666     15668     15667     15669
     15671     15670     15672     15674     15673     15675     15677     15676     15678
     15680     15679     15681     15683     15682     15684     15686     15685     15687
     15689     15688     15690     15692     15691     15693     15695     15694     15696
     15698     15697     15699     15701     15700     15702     15704     15703     15705
     15707     15706     15708     15710     15709     15711     15713     15712     15714
     15716     15715     15717     15719     15718     15720     15722     15721     15723
     15725     15724     15726     15728     15727     15729     15731     15730     15732
     15734     15733     15735     15737     15736     15738     15740     15739     15741
     15743     15742     15744     15746     15745     15747     15749     15748     15750
     15752     15751     15753     15755     15754     15756     15758     15757     15759
     15761     15760     15762     15764     15763     15765     15767     15766     15768
     15770     15769     15771     15773     15772     15774     15776     15775     15777
     15779     15778     15780     15782     15781     15783     15785     15784     15786
     15788     15787     15789     15791     15790     15792     15794     15793     15795
     15797     15796     15798     15800     15799     15801     15803     15802     15804
     15806     15805     15807     15809     15808     15810     15812     15811     15813
     15815     15814     15816     15818     15817     15819     15821     15820     15822
     15824     15823     15825     15827     15826     15828     15830     15829     15831
     15833     15832     15834     15836     15835     15837     15839     15838     15840
     15842     15841     15843     15845     15844     15846     15848     15847     15849
     15851     15850     15852     15854     15853     15855     15857     15856     15858
     15860     15859     15861     15863     15862     15864     15866     15865     15867
     15869     15868     15870     15872     15871     15873     15875     15874     15876
     15878     15877     15879     15881     15880     15882     15884     15883     15885
     15887     15886     15888     15890     15889     15891     15893     15892     15894
     15896     15895     15897     15899     15898     15900     15902     15901     15903
     15905     15904     15906     15908     15907     15909     15911     15910     15912
     15914     15913     15915     15917     15916     15918     15920     15919     15921
     15923     15922     15924     15926     15925     15927     15929     15928     15930
     15932     15931     15933     15935     15934     15936     15938     15937     15939
     15941     15940     15942     15944     15943     15945     15947     15946     15948
     15950     15949     15951     15953     15952     15954     15956     15955     15957
     15959     15958     15960     15962     15961     15963     15965     15964     15966
     15968     15967     15969     15971     15970     15972     15974     15973     15975
     15977     15976     15978     15980     15979     15981     15983     15982     15984
     15986     15985     15987     15989     15988     15990     15992     15991     15993
     15995     15994     15996     15998     15997     15999     16001     16000     16002
     16004     16003     16005     16007     16006     16008     16010     16009     16011
     16013     16012     16014     16016     16015     16017     16019     16018     16020
     16022     16021     16023     16025     16024     16026     16028     16027     16029
     16031     16030     16032     16034     16033     16035     16037     16036     16038
     16040     16039     16041     16043     16042     16044     16046     16045     16047
     16049     16048     16050     16052     16051     16053     16055     16054     16056
     16058     16057     16059     16061     16060     16062     16064     16063     16065
     16067     16066     16068     16070     16069     16071     16073     16072     16074
     16076     16075     16077     16079     16078     16080     16082     16081     16083
     16085     16084     16086     16088     16087     16089     16091     16090     16092
     16094     16093     16095     16097     16096     16098     16100     16099     16101
     16103     16102     16104     16106     16105     16107     16109     16108     16110
     16112     16111     16113     16115     16114     16116     16118     16117     16119
     16121     16120     16122     16124     16123     16125     16127     16126     16128
     16130     16129     16131     16133     16132     16134     16136     16135     16137
     16139     16138     16140     16142     16141     16143     16145     16144     16146
     16148     16147     16149     16151     16150     16152     16154     16153     16155
     16157     16156     16158     16160     16159     16161     16163     16162     16164
     16166     16165     16167     16169     16168     16170     16172     16171     16173
     16175     16174     16176     16178     16177     16179     16181     16180     16182
     16184     16183     16185     16187     16186     16188     16190     16189     16191
     16193     16192     16194     16196     16195     16197     16199     16198     16200
     16202     16201     16203     16205     16204     16206     16208     16207     16209
     16211     16210     16212     16214     16213     16215     16217     16216     16218
     16220     16219     16221     16223     16222     16224     16226     16225     16227
     16229     16228     16230     16232     16231     16233     16235     16234     16236
     16238     16237     16239     16241     16240     16242     16244     16243     16245
     16247     16246     16248     16250     16249     16251     16253     16252     16254
     16256     16255     16257     16259     16258     16260     16262     16261     16263
     16265     16264     16266     16268     16267     16269     16271     16270     16272
     16274     16273     16275     16277     16276     16278     16280     16279     16281
     16283     16282     16284     16286     16285     16287     16289     16288     16290
     16292     16291     16293     16295     16294     16296     16298     16297     16299
     16301     16300     16302     16304     16303     16305     16307     16306     16308
     16310     16309     16311     16313     16312     16314     16316     16315     16317
     16319     16318     16320     16322     16321     16323     16325     16324     16326
     16328     16327     16329     16331     16330     16332     16334     16333     16335
     16337     16336     16338     16340     16339     16341     16343     16342     16344
     16346     16345     16347     16349     16348     16350     16352     16351     16353
     16355     16354     16356     16358     16357     16359     16361     16360     16362
     16364     16363     16365     16367     16366     16368     16370     16369     16371
     16373     16372     16374     16376     16375     16377     16379     16378     16380
     16382     16381     16383     16385     16384     16386     16388     16387     16389
     16391     16390     16392     16394     16393     16395     16397     16396     16398
     16400     16399     16401     16403     16402     16404     16406     16405     16407
     16409     16408     16410     16412     16411     16413     16415     16414     16416
     16418     16417     16419     16421     16420     16422     16424     16423     16425
     16427     16426     16428     16430     16429     16431     16433     16432     16434
     16436     16435     16437     16439     16438     16440     16442     16441     16443
     16445     16444     16446     16448     16447     16449     16451     16450     16452
     16454     16453     16455     16457     16456     16458     16460     16459     16461
     16463     16462     16464     16466     16465     16467     16469     16468     16470
     16472     16471     16473     16475     16474     16476     16478     16477     16479
     16481     16480     16482     16484     16483     16485     16487     16486     16488
     16490     16489     16491     16493     16492     16494     16496     16495     16497
     16499     16498     16500     16502     16501     16503     16505     16504     16506
     16508     16507     16509     16511     16510     16512     16514     16513     16515
     16517     16516     16518     16520     16519     16521     16523     16522     16524
     16526     16525     16527     16529     16528     16530     16532     16531     16533
     16535     16534     16536     16538     16537     16539     16541     16540     16542
     16544     16543     16545     16547     16546     16548     16550     16549     16551
     16553     16552     16554     16556     16555     16557     16559     16558     16560
     16562     16561     16563     16565     16564     16566     16568     16567     16569
     16571     16570     16572     16574     16573     16575     16577     16576     16578
     16580     16579     16581     16583     16582     16584     16586     16585     16587
     16589     16588     16590     16592     16591     16593     16595     16594     16596
     16598     16597     16599     16601     16600     16602     16604     16603     16605
     16607     16606     16608     16610     16609     16611     16613     16612     16614
     16616     16615     16617     16619     16618     16620     16622     16621     16623
     16625     16624     16626     16628     16627     16629     16631     16630     16632
     16634     16633     16635     16637     16636     16638     16640     16639     16641
     16643     16642     16644     16646     16645     16647     16649     16648     16650
     16652     16651     16653     16655     16654     16656     16658     16657     16659
     16661     16660     16662     16664     16663     16665     16667     16666     16668
     16670     16669     16671     16673     16672     16674     16676     16675     16677
     16679     16678     16680     16682     16681     16683     16685     16684     16686
     16688     16687     16689     16691     16690     16692     16694     16693     16695
     16697     16696     16698     16700     16699     16701     16703     16702     16704
     16706     16705     16707     16709     16708     16710     16712     16711     16713
     16715     16714     16716     16718     16717     16719     16721     16720     16722
     16724     16723     16725     16727     16726     16728     16730     16729     16731
     16733     16732     16734     16736     16735     16737     16739     16738     16740
     16742     16741     16743     16745     16744     16746     16748     16747     16749
     16751     16750     16752     16754     16753     16755     16757     16756     16758
     16760     16759     16761     16763     16762     16764     16766     16765     16767
     16769     16768     16770     16772     16771     16773     16775     16774     16776
     16778     16777     16779     16781     16780     16782     16784     16783     16785
     16787     16786     16788     16790     16789     16791     16793     16792     16794
     16796     16795     16797     16799     16798     16800     16802     16801     16803
     16805     16804     16806     16808     16807     16809     16811     16810     16812
     16814     16813     16815     16817     16816     16818     16820     16819     16821
     16823     16822     16824     16826     16825     16827     16829     16828     16830
     16832     16831     16833     16835     16834     16836     16838     16837     16839
     16841     16840     16842     16844     16843     16845     16847     16846     16848
     16850     16849     16851     16853     16852     16854     16856     16855     16857
     16859     16858     16860     16862     16861     16863     16865     16864     16866
     16868     16867     16869     16871     16870     16872     16874     16873     16875
     16877     16876     16878     16880     16879     16881     16883     16882     16884
     16886     16885     16887     16889     16888     16890     16892     16891     16893
     16895     16894     16896     16898     16897     16899     16901     16900     16902
     16904     16903     16905     16907     16906     16908     16910     16909     16911
     16913     16912     16914     16916     16915     16917     16919     16918     16920
     16922     16921     16923     16925     16924     16926     16928     16927     16929
     16931     16930     16932     16934     16933     16935     16937     16936     16938
     16940     16939     16941     16943     16942     16944     16946     16945     16947
     16949     16948     16950     16952     16951     16953     16955     16954     16956
     16958     16957     16959     16961     16960     16962     16964     16963     16965
     16967     16966     16968     16970     16969     16971     16973     16972     16974
     16976     16975     16977     16979     16978     16980     16982     16981     16983
     16985     16984     16986     16988     16987     16989     16991     16990     16992
     16994     16993     16995     16997     16996     16998     17000     16999     17001
     17003     17002     17004     17006     17005     17007     17009     17008     17010
     17012     17011     17013     17015     17014     17016     17018     17017     17019
     17021     17020     17022     17024     17023     17025     17027     17026     17028
     17030     17029     17031     17033     17032     17034     17036     17035     17037
     17039     17038     17040     17042     17041     17043     17045     17044     17046
     17048     17047     17049     17051     17050     17052     17054     17053     17055
     17057     17056     17058     17060     17059     17061     17063     17062     17064
     17066     17065     17067     17069     17068     17070     17072     17071     17073
     17075     17074     17076     17078     17077     17079     17081     17080     17082
     17084     17083     17085     17087     17086     17088     17090     17089     17091
     17093     17092     17094     17096     17095     17097     17099     17098     17100
     17102     17101     17103     17105     17104     17106     17108     17107     17109
     17111     17110     17112     17114     17113     17115     17117     17116     17118
     17120     17119     17121     17123     17122     17124     17126     17125     17127
     17129     17128     17130     17132     17131     17133     17135     17134     17136
     17138     17137     17139     17141     17140     17142     17144     17143     17145
     17147     17146     17148     17150     17149     17151     17153     17152     17154
     17156     17155     17157     17159     17158     17160     17162     17161     17163
     17165     17164     17166     17168     17167     17169     17171     17170     17172
     17174     17173     17175     17177     17176     17178     17180     17179     17181
     17183     17182     17184     17186     17185     17187     17189     17188     17190
     17192     17191     17193     17195     17194     17196     17198     17197     17199
     17201     17200     17202     17204     17203     17205     17207     17206     17208
     17210     17209     17211     17213     17212     17214     17216     17215     17217
     17219     17218     17220     17222     17221     17223     17225     17224     17226
     17228     17227     17229     17231     17230     17232     17234     17233     17235
     17237     17236     17238     17240     17239     17241     17243     17242     17244
     17246     17245     17247     17249     17248     17250     17252     17251     17253
     17255     17254     17256     17258     17257     17259     17261     17260     17262
     17264     17263     17265     17267     17266     17268     17270     17269     17271
     17273     17272     17274     17276     17275     17277     17279     17278     17280
     17282     17281     17283     17285     17284     17286     17288     17287     17289
     17291     17290     17292     17294     17293     17295     17297     17296     17298
     17300     17299     17301     17303     17302     17304     17306     17305     17307
     17309     17308     17310     17312     17311     17313     17315     17314     17316
     17318     17317     17319     17321     17320     17322     17324     17323     17325
     17327     17326     17328     17330     17329     17331     17333     17332     17334
     17336     17335     17337     17339     17338     17340     17342     17341     17343
     17345     17344     17346     17348     17347     17349     17351     17350     17352
     17354     17353     17355     17357     17356     17358     17360     17359     17361
     17363     17362     17364     17366     17365     17367     17369     17368     17370
     17372     17371     17373     17375     17374     17376     17378     17377     17379
     17381     17380     17382     17384     17383     17385     17387     17386     17388
     17390     17389     17391     17393     17392     17394     17396     17395     17397
     17399     17398     17400     17402     17401     17403     17405     17404     17406
     17408     17407     17409     17411     17410     17412     17414     17413     17415
     17417     17416     17418     17420     17419     17421     17423     17422     17424
     17426     17425     17427     17429     17428     17430     17432     17431     17433
     17435     17434     17436     17438     17437     17439     17441     17440     17442
     17444     17443     17445     17447     17446     17448     17450     17449     17451
     17453     17452     17454     17456     17455     17457     17459     17458     17460
     17462     17461     17463     17465     17464     17466     17468     17467     17469
     17471     17470     17472     17474     17473     17475     17477     17476     17478
     17480     17479     17481     17483     17482     17484     17486     17485     17487
     17489     17488     17490     17492     17491     17493     17495     17494     17496
     17498     17497     17499     17501     17500     17502     17504     17503     17505
     17507     17506     17508     17510     17509     17511     17513     17512     17514
     17516     17515     17517     17519     17518     17520     17522     17521     17523
     17525     17524     17526     17528     17527     17529     17531     17530     17532
     17534     17533     17535     17537     17536     17538     17540     17539     17541
     17543     17542     17544     17546     17545     17547     17549     17548     17550
     17552     17551     17553     17555     17554     17556     17558     17557     17559
     17561     17560     17562     17564     17563     17565     17567     17566     17568
     17570     17569     17571     17573     17572     17574     17576     17575     17577
     17579     17578     17580     17582     17581     17583     17585     17584     17586
     17588     17587     17589     17591     17590     17592     17594     17593     17595
     17597     17596     17598     17600     17599     17601     17603     17602     17604
     17606     17605     17607     17609     17608     17610     17612     17611     17613
     17615     17614     17616     17618     17617     17619     17621     17620     17622
     17624     17623     17625     17627     17626     17628     17630     17629     17631
     17633     17632     17634     17636     17635     17637     17639     17638     17640
     17642     17641     17643     17645     17644     17646     17648     17647     17649
     17651     17650     17652     17654     17653     17655     17657     17656     17658
     17660     17659     17661     17663     17662     17664     17666     17665     17667
     17669     17668     17670     17672     17671     17673     17675     17674     17676
     17678     17677     17679     17681     17680     17682     17684     17683     17685
     17687     17686     17688     17690     17689     17691     17693     17692     17694
     17696     17695     17697     17699     17698     17700     17702     17701     17703
     17705     17704     17706     17708     17707     17709     17711     17710     17712
     17714     17713     17715     17717     17716     17718     17720     17719     17721
     17723     17722     17724     17726     17725     17727     17729     17728     17730
     17732     17731     17733     17735     17734     17736     17738     17737     17739
     17741     17740     17742     17744     17743     17745     17747     17746     17748
     17750     17749     17751     17753     17752     17754     17756     17755     17757
     17759     17758     17760     17762     17761     17763     17765     17764     17766
     17768     17767     17769     17771     17770     17772     17774     17773     17775
     17777     17776     17778     17780     17779     17781     17783     17782     17784
     17786     17785     17787     17789     17788     17790     17792     17791     17793
     17795     17794     17796     17798     17797     17799     17801     17800     17802
     17804     17803     17805     17807     17806     17808     17810     17809     17811
     17813     17812     17814     17816     17815     17817     17819     17818     17820
     17822     17821     17823     17825     17824     17826     17828     17827     17829
     17831     17830     17832     17834     17833     17835     17837     17836     17838
     17840     17839     17841     17843     17842     17844     17846     17845     17847
     17849     17848     17850     17852     17851     17853     17855     17854     17856
     17858     17857     17859     17861     17860     17862     17864     17863     17865
     17867     17866     17868     17870     17869     17871     17873     17872     17874
     17876     17875     17877     17879     17878     17880     17882     17881     17883
     17885     17884     17886     17888     17887     17889     17891     17890     17892
     17894     17893     17895     17897     17896     17898     17900     17899     17901
     17903     17902     17904     17906     17905     17907     17909     17908     17910
     17912     17911     17913     17915     17914     17916     17918     17917     17919
     17921     17920     17922     17924     17923     17925     17927     17926     17928
     17930     17929     17931     17933     17932     17934     17936     17935     17937
     17939     17938     17940     17942     17941     17943     17945     17944     17946
     17948     17947     17949     17951     17950     17952     17954     17953     17955
     17957     17956     17958     17960     17959     17961     17963     17962     17964
     17966     17965     17967     17969     17968     17970     17972     17971     17973
     17975     17974     17976     17978     17977     17979     17981     17980     17982
     17984     17983     17985     17987     17986     17988     17990     17989     17991
     17993     17992     17994     17996     17995     17997     17999     17998     18000
     18002     18001     18003     18005     18004     18006     18008     18007     18009
     18011     18010     18012     18014     18013     18015     18017     18016     18018
     18020     18019     18021     18023     18022     18024     18026     18025     18027
     18029     18028     18030     18032     18031     18033     18035     18034     18036
     18038     18037     18039     18041     18040     18042     18044     18043     18045
     18047     18046     18048     18050     18049     18051     18053     18052     18054
     18056     18055     18057     18059     18058     18060     18062     18061     18063
     18065     18064     18066     18068     18067     18069     18071     18070     18072
     18074     18073     18075     18077     18076     18078     18080     18079     18081
     18083     18082     18084     18086     18085     18087     18089     18088     18090
     18092     18091     18093     18095     18094     18096     18098     18097     18099
     18101     18100     18102     18104     18103     18105     18107     18106     18108
     18110     18109     18111     18113     18112     18114     18116     18115     18117
     18119     18118     18120     18122     18121     18123     18125     18124     18126
     18128     18127     18129     18131     18130     18132     18134     18133     18135
     18137     18136     18138     18140     18139     18141     18143     18142     18144
     18146     18145     18147     18149     18148     18150     18152     18151     18153
     18155     18154     18156     18158     18157     18159     18161     18160     18162
     18164     18163     18165     18167     18166     18168     18170     18169     18171
     18173     18172     18174     18176     18175     18177     18179     18178     18180
     18182     18181     18183     18185     18184     18186     18188     18187     18189
     18191     18190     18192     18194     18193     18195     18197     18196     18198
     18200     18199     18201     18203     18202     18204     18206     18205     18207
     18209     18208     18210     18212     18211     18213     18215     18214     18216
     18218     18217     18219     18221     18220     18222     18224     18223     18225
     18227     18226     18228     18230     18229     18231     18233     18232     18234
     18236     18235     18237     18239     18238     18240     18242     18241     18243
     18245     18244     18246     18248     18247     18249     18251     18250     18252
     18254     18253     18255     18257     18256     18258     18260     18259     18261
     18263     18262     18264     18266     18265     18267     18269     18268     18270
     18272     18271     18273     18275     18274     18276     18278     18277     18279
     18281     18280     18282     18284     18283     18285     18287     18286     18288
     18290     18289     18291     18293     18292     18294     18296     18295     18297
     18299     18298     18300     18302     18301     18303     18305     18304     18306
     18308     18307     18309     18311     18310     18312     18314     18313     18315
     18317     18316     18318     18320     18319     18321     18323     18322     18324
     18326     18325     18327     18329     18328     18330     18332     18331     18333
     18335     18334     18336     18338     18337     18339     18341     18340     18342
     18344     18343     18345     18347     18346     18348     18350     18349     18351
     18353     18352     18354     18356     18355     18357     18359     18358     18360
     18362     18361     18363     18365     18364     18366     18368     18367     18369
     18371     18370     18372     18374     18373     18375     18377     18376     18378
     18380     18379     18381     18383     18382     18384     18386     18385     18387
     18389     18388     18390     18392     18391     18393     18395     18394     18396
     18398     18397     18399     18401     18400     18402     18404     18403     18405
     18407     18406     18408     18410     18409     18411     18413     18412     18414
     18416     18415     18417     18419     18418     18420     18422     18421     18423
     18425     18424     18426     18428     18427     18429     18431     18430     18432
     18434     18433     18435     18437     18436     18438     18440     18439     18441
     18443     18442     18444     18446     18445     18447     18449     18448     18450
     18452     18451     18453     18455     18454     18456     18458     18457     18459
     18461     18460     18462     18464     18463     18465     18467     18466     18468
     18470     18469     18471     18473     18472     18474     18476     18475     18477
     18479     18478     18480     18482     18481     18483     18485     18484     18486
     18488     18487     18489     18491     18490     18492     18494     18493     18495
     18497     18496     18498     18500     18499     18501     18503     18502     18504
     18506     18505     18507     18509     18508     18510     18512     18511     18513
     18515     18514     18516     18518     18517     18519     18521     18520     18522
     18524     18523     18525     18527     18526     18528     18530     18529     18531
     18533     18532     18534     18536     18535     18537     18539     18538     18540
     18542     18541     18543     18545     18544     18546     18548     18547     18549
     18551     18550     18552     18554     18553     18555     18557     18556     18558
     18560     18559     18561     18563     18562     18564     18566     18565     18567
     18569     18568     18570     18572     18571     18573     18575     18574     18576
     18578     18577     18579     18581     18580     18582     18584     18583     18585
     18587     18586     18588     18590     18589     18591     18593     18592     18594
     18596     18595     18597     18599     18598     18600     18602     18601     18603
     18605     18604     18606     18608     18607     18609     18611     18610     18612
     18614     18613     18615     18617     18616     18618     18620     18619     18621
     18623     18622     18624     18626     18625     18627     18629     18628     18630
     18632     18631     18633     18635     18634     18636     18638     18637     18639
     18641     18640     18642     18644     18643     18645     18647     18646     18648
     18650     18649     18651     18653     18652     18654     18656     18655     18657
     18659     18658     18660     18662     18661     18663     18665     18664     18666
     18668     18667     18669     18671     18670     18672     18674     18673     18675
     18677     18676     18678     18680     18679     18681     18683     18682     18684
     18686     18685     18687     18689     18688     18690     18692     18691     18693
     18695     18694     18696     18698     18697     18699     18701     18700     18702
     18704     18703     18705     18707     18706     18708     18710     18709     18711
     18713     18712     18714     18716     18715     18717     18719     18718     18720
     18722     18721     18723     18725     18724     18726     18728     18727     18729
     18731     18730     18732     18734     18733     18735     18737     18736     18738
     18740     18739     18741     18743     18742     18744     18746     18745     18747
     18749     18748     18750     18752     18751     18753     18755     18754     18756
     18758     18757     18759     18761     18760     18762     18764     18763     18765
     18767     18766     18768     18770     18769     18771     18773     18772     18774
     18776     18775     18777     18779     18778     18780     18782     18781     18783
     18785     18784     18786     18788     18787     18789     18791     18790     18792
     18794     18793     18795     18797     18796     18798     18800     18799     18801
     18803     18802     18804     18806     18805     18807     18809     18808     18810
     18812     18811     18813     18815     18814     18816     18818     18817     18819
     18821     18820     18822     18824     18823     18825     18827     18826     18828
     18830     18829     18831     18833     18832     18834     18836     18835     18837
     18839     18838     18840     18842     18841     18843     18845     18844     18846
     18848     18847     18849     18851     18850     18852     18854     18853     18855
     18857     18856     18858     18860     18859     18861     18863     18862     18864
     18866     18865     18867     18869     18868     18870     18872     18871     18873
     18875     18874     18876     18878     18877     18879     18881     18880     18882
     18884     18883     18885     18887     18886     18888     18890     18889     18891
     18893     18892     18894     18896     18895     18897     18899     18898     18900
     18902     18901     18903     18905     18904     18906     18908     18907     18909
     18911     18910     18912     18914     18913     18915     18917     18916     18918
     18920     18919     18921     18923     18922     18924     18926     18925     18927
     18929     18928     18930     18932     18931     18933     18935     18934     18936
     18938     18937     18939     18941     18940     18942     18944     18943     18945
     18947     18946     18948     18950     18949     18951     18953     18952     18954
     18956     18955     18957     18959     18958     18960     18962     18961     18963
     18965     18964     18966     18968     18967     18969     18971     18970     18972
     18974     18973     18975     18977     18976     18978     18980     18979     18981
     18983     18982     18984     18986     18985     18987     18989     18988     18990
     18992     18991     18993     18995     18994     18996     18998     18997     18999
     19001     19000     19002     19004     19003     19005     19007     19006     19008
     19010     19009     19011     19013     19012     19014     19016     19015     19017
     19019     19018     19020     19022     19021     19023     19025     19024     19026
     19028     19027     19029     19031     19030     19032     19034     19033     19035
     19037     19036     19038     19040     19039     19041     19043     19042     19044
     19046     19045     19047     19049     19048     19050     19052     19051     19053
     19055     19054     19056     19058     19057     19059     19061     19060     19062
     19064     19063     19065     19067     19066     19068     19070     19069     19071
     19073     19072     19074     19076     19075     19077     19079     19078     19080
     19082     19081     19083     19085     19084     19086     19088     19087     19089
     19091     19090     19092     19094     19093     19095     19097     19096     19098
     19100     19099     19101     19103     19102     19104     19106     19105     19107
     19109     19108     19110     19112     19111     19113     19115     19114     19116
     19118     19117     19119     19121     19120     19122     19124     19123     19125
     19127     19126     19128     19130     19129     19131     19133     19132     19134
     19136     19135     19137     19139     19138     19140     19142     19141     19143
     19145     19144     19146     19148     19147     19149     19151     19150     19152
     19154     19153     19155     19157     19156     19158     19160     19159     19161
     19163     19162     19164     19166     19165     19167     19169     19168     19170
     19172     19171     19173     19175     19174     19176     19178     19177     19179
     19181     19180     19182     19184     19183     19185     19187     19186     19188
     19190     19189     19191     19193     19192     19194     19196     19195     19197
     19199     19198     19200     19202     19201     19203     19205     19204     19206
     19208     19207     19209     19211     19210     19212     19214     19213     19215
     19217     19216     19218     19220     19219     19221     19223     19222     19224
     19226     19225     19227     19229     19228     19230     19232     19231     19233
     19235     19234     19236     19238     19237     19239     19241     19240     19242
     19244     19243     19245     19247     19246     19248     19250     19249     19251
     19253     19252     19254     19256     19255     19257     19259     19258     19260
     19262     19261     19263     19265     19264     19266     19268     19267     19269
     19271     19270     19272     19274     19273     19275     19277     19276     19278
     19280     19279     19281     19283     19282     19284     19286     19285     19287
     19289     19288     19290     19292     19291     19293     19295     19294     19296
     19298     19297     19299     19301     19300     19302     19304     19303     19305
     19307     19306     19308     19310     19309     19311     19313     19312     19314
     19316     19315     19317     19319     19318     19320     19322     19321     19323
     19325     19324     19326     19328     19327     19329     19331     19330     19332
     19334     19333     19335     19337     19336     19338     19340     19339     19341
     19343     19342     19344     19346     19345     19347     19349     19348     19350
     19352     19351     19353     19355     19354     19356     19358     19357     19359
     19361     19360     19362     19364     19363     19365     19367     19366     19368
     19370     19369     19371     19373     19372     19374     19376     19375     19377
     19379     19378     19380     19382     19381     19383     19385     19384     19386
     19388     19387     19389     19391     19390     19392     19394     19393     19395
     19397     19396     19398     19400     19399     19401     19403     19402     19404
     19406     19405     19407     19409     19408     19410     19412     19411     19413
     19415     19414     19416     19418     19417     19419     19421     19420     19422
     19424     19423     19425     19427     19426     19428     19430     19429     19431
     19433     19432     19434     19436     19435     19437     19439     19438     19440
     19442     19441     19443     19445     19444     19446     19448     19447     19449
     19451     19450     19452     19454     19453     19455     19457     19456     19458
     19460     19459     19461     19463     19462     19464     19466     19465     19467
     19469     19468     19470     19472     19471     19473     19475     19474     19476
     19478     19477     19479     19481     19480     19482     19484     19483     19485
     19487     19486     19488     19490     19489     19491     19493     19492     19494
     19496     19495     19497     19499     19498     19500     19502     19501     19503
     19505     19504     19506     19508     19507     19509     19511     19510     19512
     19514     19513     19515     19517     19516     19518     19520     19519     19521
     19523     19522     19524     19526     19525     19527     19529     19528     19530
     19532     19531     19533     19535     19534     19536     19538     19537     19539
     19541     19540     19542     19544     19543     19545     19547     19546     19548
     19550     19549     19551     19553     19552     19554     19556     19555     19557
     19559     19558     19560     19562     19561     19563     19565     19564     19566
     19568     19567     19569     19571     19570     19572     19574     19573     19575
     19577     19576     19578     19580     19579     19581     19583     19582     19584
     19586     19585     19587     19589     19588     19590     19592     19591     19593
     19595     19594     19596     19598     19597     19599     19601     19600     19602
     19604     19603     19605     19607     19606     19608     19610     19609     19611
     19613     19612     19614     19616     19615     19617     19619     19618     19620
     19622     19621     19623     19625     19624     19626     19628     19627     19629
     19631     19630     19632     19634     19633     19635     19637     19636     19638
     19640     19639     19641     19643     19642     19644     19646     19645     19647
     19649     19648     19650     19652     19651     19653     19655     19654     19656
     19658     19657     19659     19661     19660     19662     19664     19663     19665
     19667     19666     19668     19670     19669     19671     19673     19672     19674
     19676     19675     19677     19679     19678     19680     19682     19681     19683
     19685     19684     19686     19688     19687     19689     19691     19690     19692
     19694     19693     19695     19697     19696     19698     19700     19699     19701
     19703     19702     19704     19706     19705     19707     19709     19708     19710
     19712     19711     19713     19715     19714     19716     19718     19717     19719
     19721     19720     19722     19724     19723     19725     19727     19726     19728
     19730     19729     19731     19733     19732     19734     19736     19735     19737
     19739     19738     19740     19742     19741     19743     19745     19744     19746
     19748     19747     19749     19751     19750     19752     19754     19753     19755
     19757     19756     19758     19760     19759     19761     19763     19762     19764
     19766     19765     19767     19769     19768     19770     19772     19771     19773
     19775     19774     19776     19778     19777     19779     19781     19780     19782
     19784     19783     19785     19787     19786     19788     19790     19789     19791
     19793     19792     19794     19796     19795     19797     19799     19798     19800
     19802     19801     19803     19805     19804     19806     19808     19807     19809
     19811     19810     19812     19814     19813     19815     19817     19816     19818
     19820     19819     19821     19823     19822     19824     19826     19825     19827
     19829     19828     19830     19832     19831     19833     19835     19834     19836
     19838     19837     19839     19841     19840     19842     19844     19843     19845
     19847     19846     19848     19850     19849     19851     19853     19852     19854
     19856     19855     19857     19859     19858     19860     19862     19861     19863
     19865     19864     19866     19868     19867     19869     19871     19870     19872
     19874     19873     19875     19877     19876     19878     19880     19879     19881
     19883     19882     19884     19886     19885     19887     19889     19888     19890
     19892     19891     19893     19895     19894     19896     19898     19897     19899
     19901     19900     19902     19904     19903     19905     19907     19906     19908
     19910     19909     19911     19913     19912     19914     19916     19915     19917
     19919     19918     19920     19922     19921     19923     19925     19924     19926
     19928     19927     19929     19931     19930     19932     19934     19933     19935
     19937     19936     19938     19940     19939     19941     19943     19942     19944
     19946     19945     19947     19949     19948     19950     19952     19951     19953
     19955     19954     19956     19958     19957     19959     19961     19960     19962
     19964     19963     19965     19967     19966     19968     19970     19969     19971
     19973     19972     19974     19976     19975     19977     19979     19978     19980
     19982     19981     19983     19985     19984     19986     19988     19987     19989
     19991     19990     19992     19994     19993     19995     19997     19996     19998
     20000     19999     20001     20003     20002     20004     20006     20005     20007
     20009     20008     20010     20012     20011     20013     20015     20014     20016
     20018     20017     20019     20021     20020     20022     20024     20023     20025
     20027     20026     20028     20030     20029     20031     20033     20032     20034
     20036     20035     20037     20039     20038     20040     20042     20041     20043
     20045     20044     20046     20048     20047     20049     20051     20050     20052
     20054     20053     20055     20057     20056     20058     20060     20059     20061
     20063     20062     20064     20066     20065     20067     20069     20068     20070
     20072     20071     20073     20075     20074     20076     20078     20077     20079
     20081     20080     20082     20084     20083     20085     20087     20086     20088
     20090     20089     20091     20093     20092     20094     20096     20095     20097
     20099     20098     20100     20102     20101     20103     20105     20104     20106
     20108     20107     20109     20111     20110     20112     20114     20113     20115
     20117     20116     20118     20120     20119     20121     20123     20122     20124
     20126     20125     20127     20129     20128     20130     20132     20131     20133
     20135     20134     20136     20138     20137     20139     20141     20140     20142
     20144     20143     20145     20147     20146     20148     20150     20149     20151
     20153     20152     20154     20156     20155     20157     20159     20158     20160
     20162     20161     20163     20165     20164     20166     20168     20167     20169
     20171     20170     20172     20174     20173     20175     20177     20176     20178
     20180     20179     20181     20183     20182     20184     20186     20185     20187
     20189     20188     20190     20192     20191     20193     20195     20194     20196
     20198     20197     20199     20201     20200     20202     20204     20203     20205
     20207     20206     20208     20210     20209     20211     20213     20212     20214
     20216     20215     20217     20219     20218     20220     20222     20221     20223
     20225     20224     20226     20228     20227     20229     20231     20230     20232
     20234     20233     20235     20237     20236     20238     20240     20239     20241
     20243     20242     20244     20246     20245     20247     20249     20248     20250
     20252     20251     20253     20255     20254     20256     20258     20257     20259
     20261     20260     20262     20264     20263     20265     20267     20266     20268
     20270     20269     20271     20273     20272     20274     20276     20275     20277
     20279     20278     20280     20282     20281     20283     20285     20284     20286
     20288     20287     20289     20291     20290     20292     20294     20293     20295
     20297     20296     20298     20300     20299     20301     20303     20302     20304
     20306     20305     20307     20309     20308     20310     20312     20311     20313
     20315     20314     20316     20318     20317     20319     20321     20320     20322
     20324     20323     20325     20327     20326     20328     20330     20329     20331
     20333     20332     20334     20336     20335     20337     20339     20338     20340
     20342     20341     20343     20345     20344     20346     20348     20347     20349
     20351     20350     20352     20354     20353     20355     20357     20356     20358
     20360     20359     20361     20363     20362     20364     20366     20365     20367
     20369     20368     20370     20372     20371     20373     20375     20374     20376
     20378     20377     20379     20381     20380     20382     20384     20383     20385
     20387     20386     20388     20390     20389     20391     20393     20392     20394
     20396     20395     20397     20399     20398     20400     20402     20401     20403
     20405     20404     20406     20408     20407     20409     20411     20410     20412
     20414     20413     20415     20417     20416     20418     20420     20419     20421
     20423     20422     20424     20426     20425     20427     20429     20428     20430
     20432     20431     20433     20435     20434     20436     20438     20437     20439
     20441     20440     20442     20444     20443     20445     20447     20446     20448
     20450     20449     20451     20453     20452     20454     20456     20455     20457
     20459     20458     20460     20462     20461     20463     20465     20464     20466
     20468     20467     20469     20471     20470     20472     20474     20473     20475
     20477     20476     20478     20480     20479     20481     20483     20482     20484
     20486     20485     20487     20489     20488     20490     20492     20491     20493
     20495     20494     20496     20498     20497     20499     20501     20500     20502
     20504     20503     20505     20507     20506     20508     20510     20509     20511
     20513     20512     20514     20516     20515     20517     20519     20518     20520
     20522     20521     20523     20525     20524     20526     20528     20527     20529
     20531     20530     20532     20534     20533     20535     20537     20536     20538
     20540     20539     20541     20543     20542     20544     20546     20545     20547
     20549     20548     20550     20552     20551     20553     20555     20554     20556
     20558     20557     20559     20561     20560     20562     20564     20563     20565
     20567     20566     20568     20570     20569     20571     20573     20572     20574
     20576     20575     20577     20579     20578     20580     20582     20581     20583
     20585     20584     20586     20588     20587     20589     20591     20590     20592
     20594     20593     20595     20597     20596     20598     20600     20599     20601
     20603     20602     20604     20606     20605     20607     20609     20608     20610
     20612     20611     20613     20615     20614     20616     20618     20617     20619
     20621     20620     20622     20624     20623     20625     20627     20626     20628
     20630     20629     20631     20633     20632     20634     20636     20635     20637
     20639     20638     20640     20642     20641     20643     20645     20644     20646
     20648     20647     20649     20651     20650     20652     20654     20653     20655
     20657     20656     20658     20660     20659     20661     20663     20662     20664
     20666     20665     20667     20669     20668     20670     20672     20671     20673
     20675     20674     20676     20678     20677     20679     20681     20680     20682
     20684     20683     20685     20687     20686     20688     20690     20689     20691
     20693     20692     20694     20696     20695     20697     20699     20698     20700
     20702     20701     20703     20705     20704     20706     20708     20707     20709
     20711     20710     20712     20714     20713     20715     20717     20716     20718
     20720     20719     20721     20723     20722     20724     20726     20725     20727
     20729     20728     20730     20732     20731     20733     20735     20734     20736
     20738     20737     20739     20741     20740     20742     20744     20743     20745
     20747     20746     20748     20750     20749     20751     20753     20752     20754
     20756     20755     20757     20759     20758     20760     20762     20761     20763
     20765     20764     20766     20768     20767     20769     20771     20770     20772
     20774     20773     20775     20777     20776     20778     20780     20779     20781
     20783     20782     20784     20786     20785     20787     20789     20788     20790
     20792     20791     20793     20795     20794     20796     20798     20797     20799
     20801     20800     20802     20804     20803     20805     20807     20806     20808
     20810     20809     20811     20813     20812     20814     20816     20815     20817
     20819     20818     20820     20822     20821     20823     20825     20824     20826
     20828     20827     20829     20831     20830     20832     20834     20833     20835
     20837     20836     20838     20840     20839     20841     20843     20842     20844
     20846     20845     20847     20849     20848     20850     20852     20851     20853
     20855     20854     20856     20858     20857     20859     20861     20860     20862
     20864     20863     20865     20867     20866     20868     20870     20869     20871
     20873     20872     20874     20876     20875     20877     20879     20878     20880
     20882     20881     20883     20885     20884     20886     20888     20887     20889
     20891     20890     20892     20894     20893     20895     20897     20896     20898
     20900     20899     20901     20903     20902     20904     20906     20905     20907
     20909     20908     20910     20912     20911     20913     20915     20914     20916
     20918     20917     20919     20921     20920     20922     20924     20923     20925
     20927     20926     20928     20930     20929     20931     20933     20932     20934
     20936     20935     20937     20939     20938     20940     20942     20941     20943
     20945     20944     20946     20948     20947     20949     20951     20950     20952
     20954     20953     20955     20957     20956     20958     20960     20959     20961
     20963     20962     20964     20966     20965     20967     20969     20968     20970
     20972     20971     20973     20975     20974     20976     20978     20977     20979
     20981     20980     20982     20984     20983     20985     20987     20986     20988
     20990     20989     20991     20993     20992     20994     20996     20995     20997
     20999     20998     21000     21002     21001     21003     21005     21004     21006
     21008     21007     21009     21011     21010     21012     21014     21013     21015
     21017     21016     21018     21020     21019     21021     21023     21022     21024
     21026     21025     21027     21029     21028     21030     21032     21031     21033
     21035     21034     21036     21038     21037     21039     21041     21040     21042
     21044     21043     21045     21047     21046     21048     21050     21049     21051
     21053     21052     21054     21056     21055     21057     21059     21058     21060
     21062     21061     21063     21065     21064     21066     21068     21067     21069
     21071     21070     21072     21074     21073     21075     21077     21076     21078
     21080     21079     21081     21083     21082     21084     21086     21085     21087
     21089     21088     21090     21092     21091     21093     21095     21094     21096
     21098     21097     21099     21101     21100     21102     21104     21103     21105
     21107     21106     21108     21110     21109     21111     21113     21112     21114
     21116     21115     21117     21119     21118     21120     21122     21121     21123
     21125     21124     21126     21128     21127     21129     21131     21130     21132
     21134     21133     21135     21137     21136     21138     21140     21139     21141
     21143     21142     21144     21146     21145     21147     21149     21148     21150
     21152     21151     21153     21155     21154     21156     21158     21157     21159
     21161     21160     21162     21164     21163     21165     21167     21166     21168
     21170     21169     21171     21173     21172     21174     21176     21175     21177
     21179     21178     21180     21182     21181     21183     21185     21184     21186
     21188     21187     21189     21191     21190     21192     21194     21193     21195
     21197     21196     21198     21200     21199     21201     21203     21202     21204
     21206     21205     21207     21209     21208     21210     21212     21211     21213
     21215     21214     21216     21218     21217     21219     21221     21220     21222
     21224     21223     21225     21227     21226     21228     21230     21229     21231
     21233     21232     21234     21236     21235     21237     21239     21238     21240
     21242     21241     21243     21245     21244     21246     21248     21247     21249
     21251     21250     21252     21254     21253     21255     21257     21256     21258
     21260     21259     21261     21263     21262     21264     21266     21265     21267
     21269     21268     21270     21272     21271     21273     21275     21274     21276
     21278     21277     21279     21281     21280     21282     21284     21283     21285
     21287     21286     21288     21290     21289     21291     21293     21292     21294
     21296     21295     21297     21299     21298     21300     21302     21301     21303
     21305     21304     21306     21308     21307     21309     21311     21310     21312
     21314     21313     21315     21317     21316     21318     21320     21319     21321
     21323     21322     21324     21326     21325     21327     21329     21328     21330
     21332     21331     21333     21335     21334     21336     21338     21337     21339
     21341     21340     21342     21344     21343     21345     21347     21346     21348
     21350     21349     21351     21353     21352     21354     21356     21355     21357
     21359     21358     21360     21362     21361     21363     21365     21364     21366
     21368     21367     21369     21371     21370     21372     21374     21373     21375
     21377     21376     21378     21380     21379     21381     21383     21382     21384
     21386     21385     21387     21389     21388     21390     21392     21391     21393
     21395     21394     21396     21398     21397     21399     21401     21400     21402
     21404     21403     21405     21407     21406     21408     21410     21409     21411
     21413     21412     21414     21416     21415     21417     21419     21418     21420
     21422     21421     21423     21425     21424     21426     21428     21427     21429
     21431     21430     21432     21434     21433     21435     21437     21436     21438
     21440     21439     21441     21443     21442     21444     21446     21445     21447
     21449     21448     21450     21452     21451     21453     21455     21454     21456
     21458     21457     21459     21461     21460     21462     21464     21463     21465
     21467     21466     21468     21470     21469     21471     21473     21472     21474
     21476     21475     21477     21479     21478     21480     21482     21481     21483
     21485     21484     21486     21488     21487     21489     21491     21490     21492
     21494     21493     21495     21497     21496     21498     21500     21499     21501
     21503     21502     21504     21506     21505     21507     21509     21508     21510
     21512     21511     21513     21515     21514     21516     21518     21517     21519
     21521     21520     21522     21524     21523     21525     21527     21526     21528
     21530     21529     21531     21533     21532     21534     21536     21535     21537
     21539     21538     21540     21542     21541     21543     21545     21544     21546
     21548     21547     21549     21551     21550     21552     21554     21553     21555
     21557     21556     21558     21560     21559     21561     21563     21562     21564
     21566     21565     21567     21569     21568     21570     21572     21571     21573
     21575     21574     21576     21578     21577     21579     21581     21580     21582
     21584     21583     21585     21587     21586     21588     21590     21589     21591
     21593     21592     21594     21596     21595     21597     21599     21598     21600
     21602     21601     21603     21605     21604     21606     21608     21607     21609
     21611     21610     21612     21614     21613     21615     21617     21616     21618
     21620     21619     21621     21623     21622     21624     21626     21625     21627
     21629     21628     21630     21632     21631     21633     21635     21634     21636
     21638     21637     21639     21641     21640     21642     21644     21643     21645
     21647     21646     21648     21650     21649     21651     21653     21652     21654
     21656     21655     21657     21659     21658     21660     21662     21661     21663
     21665     21664     21666     21668     21667     21669     21671     21670     21672
     21674     21673     21675     21677     21676     21678     21680     21679     21681
     21683     21682     21684     21686     21685     21687     21689     21688     21690
     21692     21691     21693     21695     21694     21696     21698     21697     21699
     21701     21700     21702     21704     21703     21705     21707     21706     21708
     21710     21709     21711     21713     21712     21714     21716     21715     21717
     21719     21718     21720     21722     21721     21723     21725     21724     21726
     21728     21727     21729     21731     21730     21732     21734     21733     21735
     21737     21736     21738     21740     21739     21741     21743     21742     21744
     21746     21745     21747     21749     21748     21750     21752     21751     21753
     21755     21754     21756     21758     21757     21759     21761     21760     21762
     21764     21763     21765     21767     21766     21768     21770     21769     21771
     21773     21772     21774     21776     21775     21777     21779     21778     21780
     21782     21781     21783     21785     21784     21786     21788     21787     21789
     21791     21790     21792     21794     21793     21795     21797     21796     21798
     21800     21799     21801     21803     21802     21804     21806     21805     21807
     21809     21808     21810     21812     21811     21813     21815     21814     21816
     21818     21817     21819     21821     21820     21822     21824     21823     21825
     21827     21826     21828     21830     21829     21831     21833     21832     21834
     21836     21835     21837     21839     21838     21840     21842     21841     21843
     21845     21844     21846     21848     21847     21849     21851     21850     21852
     21854     21853     21855     21857     21856     21858     21860     21859     21861
     21863     21862     21864     21866     21865     21867     21869     21868     21870
     21872     21871     21873     21875     21874     21876     21878     21877     21879
     21881     21880     21882     21884     21883     21885     21887     21886     21888
     21890     21889     21891     21893     21892     21894     21896     21895     21897
     21899     21898     21900     21902     21901     21903     21905     21904     21906
     21908     21907     21909     21911     21910     21912     21914     21913     21915
     21917     21916     21918     21920     21919     21921     21923     21922     21924
     21926     21925     21927     21929     21928     21930     21932     21931     21933
     21935     21934     21936     21938     21937     21939     21941     21940     21942
     21944     21943     21945     21947     21946     21948     21950     21949     21951
     21953     21952     21954     21956     21955     21957     21959     21958     21960
     21962     21961     21963     21965     21964     21966     21968     21967     21969
     21971     21970     21972     21974     21973     21975     21977     21976     21978
     21980     21979     21981     21983     21982     21984     21986     21985     21987
     21989     21988     21990     21992     21991     21993     21995     21994     21996
     21998     21997     21999     22001     22000     22002     22004     22003     22005
     22007     22006     22008     22010     22009     22011     22013     22012     22014
     22016     22015     22017     22019     22018     22020     22022     22021     22023
     22025     22024     22026     22028     22027     22029     22031     22030     22032
     22034     22033     22035     22037     22036     22038     22040     22039     22041
     22043     22042     22044     22046     22045     22047     22049     22048     22050
     22052     22051     22053     22055     22054     22056     22058     22057     22059
     22061     22060     22062     22064     22063     22065     22067     22066     22068
     22070     22069     22071     22073     22072     22074     22076     22075     22077
     22079     22078     22080     22082     22081     22083     22085     22084     22086
     22088     22087     22089     22091     22090     22092     22094     22093     22095
     22097     22096     22098     22100     22099     22101     22103     22102     22104
     22106     22105     22107     22109     22108     22110     22112     22111     22113
     22115     22114     22116     22118     22117     22119     22121     22120     22122
     22124     22123     22125     22127     22126     22128     22130     22129     22131
     22133     22132     22134     22136     22135     22137     22139     22138     22140
     22142     22141     22143     22145     22144     22146     22148     22147     22149
     22151     22150     22152     22154     22153     22155     22157     22156     22158
     22160     22159     22161     22163     22162     22164     22166     22165     22167
     22169     22168     22170     22172     22171     22173     22175     22174     22176
     22178     22177     22179     22181     22180     22182     22184     22183     22185
     22187     22186     22188     22190     22189     22191     22193     22192     22194
     22196     22195     22197     22199     22198     22200     22202     22201     22203
     22205     22204     22206     22208     22207     22209     22211     22210     22212
     22214     22213     22215     22217     22216     22218     22220     22219     22221
     22223     22222     22224     22226     22225     22227     22229     22228     22230
     22232     22231     22233     22235     22234     22236     22238     22237     22239
     22241     22240     22242     22244     22243     22245     22247     22246     22248
     22250     22249     22251     22253     22252     22254     22256     22255     22257
     22259     22258     22260     22262     22261     22263     22265     22264     22266
     22268     22267     22269     22271     22270     22272     22274     22273     22275
     22277     22276     22278     22280     22279     22281     22283     22282     22284
     22286     22285     22287     22289     22288     22290     22292     22291     22293
     22295     22294     22296     22298     22297     22299     22301     22300     22302
     22304     22303     22305     22307     22306     22308     22310     22309     22311
     22313     22312     22314     22316     22315     22317     22319     22318     22320
     22322     22321     22323     22325     22324     22326     22328     22327     22329
     22331     22330     22332     22334     22333     22335     22337     22336     22338
     22340     22339     22341     22343     22342     22344     22346     22345     22347
     22349     22348     22350     22352     22351     22353     22355     22354     22356
     22358     22357     22359     22361     22360     22362     22364     22363     22365
     22367     22366     22368     22370     22369     22371     22373     22372     22374
     22376     22375     22377     22379     22378     22380     22382     22381     22383
     22385     22384     22386     22388     22387     22389     22391     22390     22392
     22394     22393     22395     22397     22396     22398     22400     22399     22401
     22403     22402     22404     22406     22405     22407     22409     22408     22410
     22412     22411     22413     22415     22414     22416     22418     22417     22419
     22421     22420     22422     22424     22423     22425     22427     22426     22428
     22430     22429     22431     22433     22432     22434     22436     22435     22437
     22439     22438     22440     22442     22441     22443     22445     22444     22446
     22448     22447     22449     22451     22450     22452     22454     22453     22455
     22457     22456     22458     22460     22459     22461     22463     22462     22464
     22466     22465     22467     22469     22468     22470     22472     22471     22473
     22475     22474     22476     22478     22477     22479     22481     22480     22482
     22484     22483     22485     22487     22486     22488     22490     22489     22491
     22493     22492     22494     22496     22495     22497     22499     22498     22500
     22502     22501     22503     22505     22504     22506     22508     22507     22509
     22511     22510     22512     22514     22513     22515     22517     22516     22518
     22520     22519     22521     22523     22522     22524     22526     22525     22527
     22529     22528     22530     22532     22531     22533     22535     22534     22536
     22538     22537     22539     22541     22540     22542     22544     22543     22545
     22547     22546     22548     22550     22549     22551     22553     22552     22554
     22556     22555     22557     22559     22558     22560     22562     22561     22563
     22565     22564     22566     22568     22567     22569     22571     22570     22572
     22574     22573     22575     22577     22576     22578     22580     22579     22581
     22583     22582     22584     22586     22585     22587     22589     22588     22590
     22592     22591     22593     22595     22594     22596     22598     22597     22599
     22601     22600     22602     22604     22603     22605     22607     22606     22608
     22610     22609     22611     22613     22612     22614     22616     22615     22617
     22619     22618     22620     22622     22621     22623     22625     22624     22626
     22628     22627     22629     22631     22630     22632     22634     22633     22635
     22637     22636     22638     22640     22639     22641     22643     22642     22644
     22646     22645     22647     22649     22648     22650     22652     22651     22653
     22655     22654     22656     22658     22657     22659     22661     22660     22662
     22664     22663     22665     22667     22666     22668     22670     22669     22671
     22673     22672     22674     22676     22675     22677     22679     22678     22680
     22682     22681     22683     22685     22684     22686     22688     22687     22689
     22691     22690     22692     22694     22693     22695     22697     22696     22698
     22700     22699     22701     22703     22702     22704     22706     22705     22707
     22709     22708     22710     22712     22711     22713     22715     22714     22716
     22718     22717     22719     22721     22720     22722     22724     22723     22725
     22727     22726     22728     22730     22729     22731     22733     22732     22734
     22736     22735     22737     22739     22738     22740     22742     22741     22743
     22745     22744     22746     22748     22747     22749     22751     22750     22752
     22754     22753     22755     22757     22756     22758     22760     22759     22761
     22763     22762     22764     22766     22765     22767     22769     22768     22770
     22772     22771     22773     22775     22774     22776     22778     22777     22779
     22781     22780     22782     22784     22783     22785     22787     22786     22788
     22790     22789     22791     22793     22792     22794     22796     22795     22797
     22799     22798     22800     22802     22801     22803     22805     22804     22806
     22808     22807     22809     22811     22810     22812     22814     22813     22815
     22817     22816     22818     22820     22819     22821     22823     22822     22824
     22826     22825     22827     22829     22828     22830     22832     22831     22833
     22835     22834     22836     22838     22837     22839     22841     22840     22842
     22844     22843     22845     22847     22846     22848     22850     22849     22851
     22853     22852     22854     22856     22855     22857     22859     22858     22860
     22862     22861     22863     22865     22864     22866     22868     22867     22869
     22871     22870     22872     22874     22873     22875     22877     22876     22878
     22880     22879     22881     22883     22882     22884     22886     22885     22887
     22889     22888     22890     22892     22891     22893     22895     22894     22896
     22898     22897     22899     22901     22900     22902     22904     22903     22905
     22907     22906     22908     22910     22909     22911     22913     22912     22914
     22916     22915     22917     22919     22918     22920     22922     22921     22923
     22925     22924     22926     22928     22927     22929     22931     22930     22932
     22934     22933     22935     22937     22936     22938     22940     22939     22941
     22943     22942     22944     22946     22945     22947     22949     22948     22950
     22952     22951     22953     22955     22954     22956     22958     22957     22959
     22961     22960     22962     22964     22963     22965     22967     22966     22968
     22970     22969     22971     22973     22972     22974     22976     22975     22977
     22979     22978     22980     22982     22981     22983     22985     22984     22986
     22988     22987     22989     22991     22990     22992     22994     22993     22995
     22997     22996     22998     23000     22999     23001     23003     23002     23004
     23006     23005     23007     23009     23008     23010     23012     23011     23013
     23015     23014     23016     23018     23017     23019     23021     23020     23022
     23024     23023     23025     23027     23026     23028     23030     23029     23031
     23033     23032     23034     23036     23035     23037     23039     23038     23040
     23042     23041     23043     23045     23044     23046     23048     23047     23049
     23051     23050     23052     23054     23053     23055     23057     23056     23058
     23060     23059     23061     23063     23062     23064     23066     23065     23067
     23069     23068     23070     23072     23071     23073     23075     23074     23076
     23078     23077     23079     23081     23080     23082     23084     23083     23085
     23087     23086     23088     23090     23089     23091     23093     23092     23094
     23096     23095     23097     23099     23098     23100     23102     23101     23103
     23105     23104     23106     23108     23107     23109     23111     23110     23112
     23114     23113     23115     23117     23116     23118     23120     23119     23121
     23123     23122     23124     23126     23125     23127     23129     23128     23130
     23132     23131     23133     23135     23134     23136     23138     23137     23139
     23141     23140     23142     23144     23143     23145     23147     23146     23148
     23150     23149     23151     23153     23152     23154     23156     23155     23157
     23159     23158     23160     23162     23161     23163     23165     23164     23166
     23168     23167     23169     23171     23170     23172     23174     23173     23175
     23177     23176     23178     23180     23179     23181     23183     23182     23184
     23186     23185     23187     23189     23188     23190     23192     23191     23193
     23195     23194     23196     23198     23197     23199     23201     23200     23202
     23204     23203     23205     23207     23206     23208     23210     23209     23211
     23213     23212     23214     23216     23215     23217     23219     23218     23220
     23222     23221     23223     23225     23224     23226     23228     23227     23229
     23231     23230     23232     23234     23233     23235     23237     23236     23238
     23240     23239     23241     23243     23242     23244     23246     23245     23247
     23249     23248     23250     23252     23251     23253     23255     23254     23256
     23258     23257     23259     23261     23260     23262     23264     23263     23265
     23267     23266     23268     23270     23269     23271     23273     23272     23274
     23276     23275     23277     23279     23278     23280     23282     23281     23283
     23285     23284     23286     23288     23287     23289     23291     23290     23292
     23294     23293     23295     23297     23296     23298     23300     23299     23301
     23303     23302     23304     23306     23305     23307     23309     23308     23310
     23312     23311     23313     23315     23314     23316     23318     23317     23319
     23321     23320     23322     23324     23323     23325     23327     23326     23328
     23330     23329     23331     23333     23332     23334     23336     23335     23337
     23339     23338     23340     23342     23341     23343     23345     23344     23346
     23348     23347     23349     23351     23350     23352     23354     23353     23355
     23357     23356     23358     23360     23359     23361     23363     23362     23364
     23366     23365     23367     23369     23368     23370     23372     23371     23373
     23375     23374     23376     23378     23377     23379     23381     23380     23382
     23384     23383     23385     23387     23386     23388     23390     23389     23391
     23393     23392     23394     23396     23395     23397     23399     23398     23400
     23402     23401     23403     23405     23404     23406     23408     23407     23409
     23411     23410     23412     23414     23413     23415     23417     23416     23418
     23420     23419     23421     23423     23422     23424     23426     23425     23427
     23429     23428     23430     23432     23431     23433     23435     23434     23436
     23438     23437     23439     23441     23440     23442     23444     23443     23445
     23447     23446     23448     23450     23449     23451     23453     23452     23454
     23456     23455     23457     23459     23458     23460     23462     23461     23463
     23465     23464     23466     23468     23467     23469     23471     23470     23472
     23474     23473     23475     23477     23476     23478     23480     23479     23481
     23483     23482     23484     23486     23485     23487     23489     23488     23490
     23492     23491     23493     23495     23494     23496     23498     23497     23499
     23501     23500     23502     23504     23503     23505     23507     23506     23508
     23510     23509     23511     23513     23512     23514     23516     23515     23517
     23519     23518     23520     23522     23521     23523     23525     23524     23526
     23528     23527     23529     23531     23530     23532     23534     23533     23535
     23537     23536     23538     23540     23539     23541     23543     23542     23544
     23546     23545     23547     23549     23548     23550     23552     23551     23553
     23555     23554     23556     23558     23557     23559     23561     23560     23562
     23564     23563     23565     23567     23566     23568     23570     23569     23571
     23573     23572     23574     23576     23575     23577     23579     23578     23580
     23582     23581     23583     23585     23584     23586     23588     23587     23589
     23591     23590     23592     23594     23593     23595     23597     23596     23598
     23600     23599     23601     23603     23602     23604     23606     23605     23607
     23609     23608     23610     23612     23611     23613     23615     23614     23616
     23618     23617     23619     23621     23620     23622     23624     23623     23625
     23627     23626     23628     23630     23629     23631     23633     23632     23634
     23636     23635     23637     23639     23638     23640     23642     23641     23643
     23645     23644     23646     23648     23647     23649     23651     23650     23652
     23654     23653     23655     23657     23656     23658     23660     23659     23661
     23663     23662     23664     23666     23665     23667     23669     23668     23670
     23672     23671     23673     23675     23674     23676     23678     23677     23679
     23681     23680     23682     23684     23683     23685     23687     23686     23688
     23690     23689     23691     23693     23692     23694     23696     23695     23697
     23699     23698     23700     23702     23701     23703     23705     23704     23706
     23708     23707     23709     23711     23710     23712     23714     23713     23715
     23717     23716     23718     23720     23719     23721     23723     23722     23724
     23726     23725     23727     23729     23728     23730     23732     23731     23733
     23735     23734     23736     23738     23737     23739     23741     23740     23742
     23744     23743     23745     23747     23746     23748     23750     23749     23751
     23753     23752     23754     23756     23755     23757     23759     23758     23760
     23762     23761     23763     23765     23764     23766     23768     23767     23769
     23771     23770     23772     23774     23773     23775     23777     23776     23778
     23780     23779     23781     23783     23782     23784     23786     23785     23787
     23789     23788     23790     23792     23791     23793     23795     23794     23796
     23798     23797     23799     23801     23800     23802     23804     23803     23805
     23807     23806     23808     23810     23809     23811     23813     23812     23814
     23816     23815     23817     23819     23818     23820     23822     23821     23823
     23825     23824     23826     23828     23827     23829     23831     23830     23832
     23834     23833     23835     23837     23836     23838     23840     23839     23841
     23843     23842     23844     23846     23845     23847     23849     23848     23850
     23852     23851     23853     23855     23854     23856     23858     23857     23859
     23861     23860     23862     23864     23863     23865     23867     23866     23868
     23870     23869     23871     23873     23872     23874     23876     23875     23877
     23879     23878     23880     23882     23881     23883     23885     23884     23886
     23888     23887     23889     23891     23890     23892     23894     23893     23895
     23897     23896     23898     23900     23899     23901     23903     23902     23904
     23906     23905     23907     23909     23908     23910     23912     23911     23913
     23915     23914     23916     23918     23917     23919     23921     23920     23922
     23924     23923     23925     23927     23926     23928     23930     23929     23931
     23933     23932     23934     23936     23935     23937     23939     23938     23940
     23942     23941     23943     23945     23944     23946     23948     23947     23949
     23951     23950     23952     23954     23953     23955     23957     23956     23958
     23960     23959     23961     23963     23962     23964     23966     23965     23967
     23969     23968     23970     23972     23971     23973     23975     23974     23976
     23978     23977     23979     23981     23980     23982     23984     23983     23985
     23987     23986     23988     23990     23989     23991     23993     23992     23994
     23996     23995     23997     23999     23998     24000     24002     24001     24003
     24005     24004     24006     24008     24007     24009     24011     24010     24012
     24014     24013     24015     24017     24016     24018     24020     24019     24021
     24023     24022     24024     24026     24025     24027     24029     24028     24030
     24032     24031     24033     24035     24034     24036     24038     24037     24039
     24041     24040     24042     24044     24043     24045     24047     24046     24048
     24050     24049     24051     24053     24052     24054     24056     24055     24057
     24059     24058     24060     24062     24061     24063     24065     24064     24066
     24068     24067     24069     24071     24070     24072     24074     24073     24075
     24077     24076     24078     24080     24079     24081     24083     24082     24084
     24086     24085     24087     24089     24088     24090     24092     24091     24093
     24095     24094     24096     24098     24097     24099     24101     24100     24102
     24104     24103     24105     24107     24106     24108     24110     24109     24111
     24113     24112     24114     24116     24115     24117     24119     24118     24120
     24122     24121     24123     24125     24124     24126     24128     24127     24129
     24131     24130     24132     24134     24133     24135     24137     24136     24138
     24140     24139     24141     24143     24142     24144     24146     24145     24147
     24149     24148     24150     24152     24151     24153     24155     24154     24156
     24158     24157     24159     24161     24160     24162     24164     24163     24165
     24167     24166     24168     24170     24169     24171     24173     24172     24174
     24176     24175     24177     24179     24178     24180     24182     24181     24183
     24185     24184     24186     24188     24187     24189     24191     24190     24192
     24194     24193     24195     24197     24196     24198     24200     24199     24201
     24203     24202     24204     24206     24205     24207     24209     24208     24210
     24212     24211     24213     24215     24214     24216     24218     24217     24219
     24221     24220     24222     24224     24223     24225     24227     24226     24228
     24230     24229     24231     24233     24232     24234     24236     24235     24237
     24239     24238     24240     24242     24241     24243     24245     24244     24246
     24248     24247     24249     24251     24250     24252     24254     24253     24255
     24257     24256     24258     24260     24259     24261     24263     24262     24264
     24266     24265     24267     24269     24268     24270     24272     24271     24273
     24275     24274     24276     24278     24277     24279     24281     24280     24282
     24284     24283     24285     24287     24286     24288     24290     24289     24291
     24293     24292     24294     24296     24295     24297     24299     24298     24300
     24302     24301     24303     24305     24304     24306     24308     24307     24309
     24311     24310     24312     24314     24313     24315     24317     24316     24318
     24320     24319     24321     24323     24322     24324     24326     24325     24327
     24329     24328     24330     24332     24331     24333     24335     24334     24336
     24338     24337     24339     24341     24340     24342     24344     24343     24345
     24347     24346     24348     24350     24349     24351     24353     24352     24354
     24356     24355     24357     24359     24358     24360     24362     24361     24363
     24365     24364     24366     24368     24367     24369     24371     24370     24372
     24374     24373     24375     24377     24376     24378     24380     24379     24381
     24383     24382     24384     24386     24385     24387     24389     24388     24390
     24392     24391     24393     24395     24394     24396     24398     24397     24399
     24401     24400     24402     24404     24403     24405     24407     24406     24408
     24410     24409     24411     24413     24412     24414     24416     24415     24417
     24419     24418     24420     24422     24421     24423     24425     24424     24426
     24428     24427     24429     24431     24430     24432     24434     24433     24435
     24437     24436     24438     24440     24439     24441     24443     24442     24444
     24446     24445     24447     24449     24448     24450     24452     24451     24453
     24455     24454     24456     24458     24457     24459     24461     24460     24462
     24464     24463     24465     24467     24466     24468     24470     24469     24471
     24473     24472     24474     24476     24475     24477     24479     24478     24480
     24482     24481     24483     24485     24484     24486     24488     24487     24489
     24491     24490     24492     24494     24493     24495     24497     24496     24498
     24500     24499     24501     24503     24502     24504     24506     24505     24507
     24509     24508     24510     24512     24511     24513     24515     24514     24516
     24518     24517     24519     24521     24520     24522     24524     24523     24525
     24527     24526     24528     24530     24529     24531     24533     24532     24534
     24536     24535     24537     24539     24538     24540     24542     24541     24543
     24545     24544     24546     24548     24547     24549     24551     24550     24552
     24554     24553     24555     24557     24556     24558     24560     24559     24561
     24563     24562     24564     24566     24565     24567     24569     24568     24570
     24572     24571     24573     24575     24574     24576     24578     24577     24579
     24581     24580     24582     24584     24583     24585     24587     24586     24588
     24590     24589     24591     24593     24592     24594     24596     24595     24597
     24599     24598     24600     24602     24601     24603     24605     24604     24606
     24608     24607     24609     24611     24610     24612     24614     24613     24615
     24617     24616     24618     24620     24619     24621     24623     24622     24624
     24626     24625     24627     24629     24628     24630     24632     24631     24633
     24635     24634     24636     24638     24637     24639     24641     24640     24642
     24644     24643     24645     24647     24646     24648     24650     24649     24651
     24653     24652     24654     24656     24655     24657     24659     24658     24660
     24662     24661     24663     24665     24664     24666     24668     24667     24669
     24671     24670     24672     24674     24673     24675     24677     24676     24678
     24680     24679     24681     24683     24682     24684     24686     24685     24687
     24689     24688     24690     24692     24691     24693     24695     24694     24696
     24698     24697     24699     24701     24700     24702     24704     24703     24705
     24707     24706     24708     24710     24709     24711     24713     24712     24714
     24716     24715     24717     24719     24718     24720     24722     24721     24723
     24725     24724     24726     24728     24727     24729     24731     24730     24732
     24734     24733     24735     24737     24736     24738     24740     24739     24741
     24743     24742     24744     24746     24745     24747     24749     24748     24750
     24752     24751     24753     24755     24754     24756     24758     24757     24759
     24761     24760     24762     24764     24763     24765     24767     24766     24768
     24770     24769     24771     24773     24772     24774     24776     24775     24777
     24779     24778     24780     24782     24781     24783     24785     24784     24786
     24788     24787     24789     24791     24790     24792     24794     24793     24795
     24797     24796     24798     24800     24799     24801     24803     24802     24804
     24806     24805     24807     24809     24808     24810     24812     24811     24813
     24815     24814     24816     24818     24817     24819     24821     24820     24822
     24824     24823     24825     24827     24826     24828     24830     24829     24831
     24833     24832     24834     24836     24835     24837     24839     24838     24840
     24842     24841     24843     24845     24844     24846     24848     24847     24849
     24851     24850     24852     24854     24853     24855     24857     24856     24858
     24860     24859     24861     24863     24862     24864     24866     24865     24867
     24869     24868     24870     24872     24871     24873     24875     24874     24876
     24878     24877     24879     24881     24880     24882     24884     24883     24885
     24887     24886     24888     24890     24889     24891     24893     24892     24894
     24896     24895     24897     24899     24898     24900     24902     24901     24903
     24905     24904     24906     24908     24907     24909     24911     24910     24912
     24914     24913     24915     24917     24916     24918     24920     24919     24921
     24923     24922     24924     24926     24925     24927     24929     24928     24930
     24932     24931     24933     24935     24934     24936     24938     24937     24939
     24941     24940     24942     24944     24943     24945     24947     24946     24948
     24950     24949     24951     24953     24952     24954     24956     24955     24957
     24959     24958     24960     24962     24961     24963     24965     24964     24966
     24968     24967     24969     24971     24970     24972     24974     24973     24975
     24977     24976     24978     24980     24979     24981     24983     24982     24984
     24986     24985     24987     24989     24988     24990     24992     24991     24993
     24995     24994     24996     24998     24997     24999     25001     25000     25002
     25004     25003     25005     25007     25006     25008     25010     25009     25011
     25013     25012     25014     25016     25015     25017     25019     25018     25020
     25022     25021     25023     25025     25024     25026     25028     25027     25029
     25031     25030     25032     25034     25033     25035     25037     25036     25038
     25040     25039     25041     25043     25042     25044     25046     25045     25047
     25049     25048     25050     25052     25051     25053     25055     25054     25056
     25058     25057     25059     25061     25060     25062     25064     25063     25065
     25067     25066     25068     25070     25069     25071     25073     25072     25074
     25076     25075     25077     25079     25078     25080     25082     25081     25083
     25085     25084     25086     25088     25087     25089     25091     25090     25092
     25094     25093     25095     25097     25096     25098     25100     25099     25101
     25103     25102     25104     25106     25105     25107     25109     25108     25110
     25112     25111     25113     25115     25114     25116     25118     25117     25119
     25121     25120     25122     25124     25123     25125     25127     25126     25128
     25130     25129     25131     25133     25132     25134     25136     25135     25137
     25139     25138     25140     25142     25141     25143     25145     25144     25146
     25148     25147     25149     25151     25150     25152     25154     25153     25155
     25157     25156     25158     25160     25159     25161     25163     25162     25164
     25166     25165     25167     25169     25168     25170     25172     25171     25173
     25175     25174     25176     25178     25177     25179     25181     25180     25182
     25184     25183     25185     25187     25186     25188     25190     25189     25191
     25193     25192     25194     25196     25195     25197     25199     25198     25200
     25202     25201     25203     25205     25204     25206     25208     25207     25209
     25211     25210     25212     25214     25213     25215     25217     25216     25218
     25220     25219     25221     25223     25222     25224     25226     25225     25227
     25229     25228     25230     25232     25231     25233     25235     25234     25236
     25238     25237     25239     25241     25240     25242     25244     25243     25245
     25247     25246     25248     25250     25249     25251     25253     25252     25254
     25256     25255     25257     25259     25258     25260     25262     25261     25263
     25265     25264     25266     25268     25267     25269     25271     25270     25272
     25274     25273     25275     25277     25276     25278     25280     25279     25281
     25283     25282     25284     25286     25285     25287     25289     25288     25290
     25292     25291     25293     25295     25294     25296     25298     25297     25299
     25301     25300     25302     25304     25303     25305     25307     25306     25308
     25310     25309     25311     25313     25312     25314     25316     25315     25317
     25319     25318     25320     25322     25321     25323     25325     25324     25326
     25328     25327     25329     25331     25330     25332     25334     25333     25335
     25337     25336     25338     25340     25339     25341     25343     25342     25344
     25346     25345     25347     25349     25348     25350     25352     25351     25353
     25355     25354     25356     25358     25357     25359     25361     25360     25362
     25364     25363     25365     25367     25366     25368     25370     25369     25371
     25373     25372     25374     25376     25375     25377     25379     25378     25380
     25382     25381     25383     25385     25384     25386     25388     25387     25389
     25391     25390     25392     25394     25393     25395     25397     25396     25398
     25400     25399     25401     25403     25402     25404     25406     25405     25407
     25409     25408     25410     25412     25411     25413     25415     25414     25416
     25418     25417     25419     25421     25420     25422     25424     25423     25425
     25427     25426     25428     25430     25429     25431     25433     25432     25434
     25436     25435     25437     25439     25438     25440     25442     25441     25443
     25445     25444     25446     25448     25447     25449     25451     25450     25452
     25454     25453     25455     25457     25456     25458     25460     25459     25461
     25463     25462     25464     25466     25465     25467     25469     25468     25470
     25472     25471     25473     25475     25474     25476     25478     25477     25479
     25481     25480     25482     25484     25483     25485     25487     25486     25488
     25490     25489     25491     25493     25492     25494     25496     25495     25497
     25499     25498     25500     25502     25501     25503     25505     25504     25506
     25508     25507     25509     25511     25510     25512     25514     25513     25515
     25517     25516     25518     25520     25519     25521     25523     25522     25524
     25526     25525     25527     25529     25528     25530     25532     25531     25533
     25535     25534     25536     25538     25537     25539     25541     25540     25542
     25544     25543     25545     25547     25546     25548     25550     25549     25551
     25553     25552     25554     25556     25555     25557     25559     25558     25560
     25562     25561     25563     25565     25564     25566     25568     25567     25569
     25571     25570     25572     25574     25573     25575     25577     25576     25578
     25580     25579     25581     25583     25582     25584     25586     25585     25587
     25589     25588     25590     25592     25591     25593     25595     25594     25596
     25598     25597     25599     25601     25600     25602     25604     25603     25605
     25607     25606     25608     25610     25609     25611     25613     25612     25614
     25616     25615     25617     25619     25618     25620     25622     25621     25623
     25625     25624     25626     25628     25627     25629     25631     25630     25632
     25634     25633     25635     25637     25636     25638     25640     25639     25641
     25643     25642     25644     25646     25645     25647     25649     25648     25650
     25652     25651     25653     25655     25654     25656     25658     25657     25659
     25661     25660     25662     25664     25663     25665     25667     25666     25668
     25670     25669     25671     25673     25672     25674     25676     25675     25677
     25679     25678     25680     25682     25681     25683     25685     25684     25686
     25688     25687     25689     25691     25690     25692     25694     25693     25695
     25697     25696     25698     25700     25699     25701     25703     25702     25704
     25706     25705     25707     25709     25708     25710     25712     25711     25713
     25715     25714     25716     25718     25717     25719     25721     25720     25722
     25724     25723     25725     25727     25726     25728     25730     25729     25731
     25733     25732     25734     25736     25735     25737     25739     25738     25740
     25742     25741     25743     25745     25744     25746     25748     25747     25749
     25751     25750     25752     25754     25753     25755     25757     25756     25758
     25760     25759     25761     25763     25762     25764     25766     25765     25767
     25769     25768     25770     25772     25771     25773     25775     25774     25776
     25778     25777     25779     25781     25780     25782     25784     25783     25785
     25787     25786     25788     25790     25789     25791     25793     25792     25794
     25796     25795     25797     25799     25798     25800     25802     25801     25803
     25805     25804     25806     25808     25807     25809     25811     25810     25812
     25814     25813     25815     25817     25816     25818     25820     25819     25821
     25823     25822     25824     25826     25825     25827     25829     25828     25830
     25832     25831     25833     25835     25834     25836     25838     25837     25839
     25841     25840     25842     25844     25843     25845     25847     25846     25848
     25850     25849     25851     25853     25852     25854     25856     25855     25857
     25859     25858     25860     25862     25861     25863     25865     25864     25866
     25868     25867     25869     25871     25870     25872     25874     25873     25875
     25877     25876     25878     25880     25879     25881     25883     25882     25884
     25886     25885     25887     25889     25888     25890     25892     25891     25893
     25895     25894     25896     25898     25897     25899     25901     25900     25902
     25904     25903     25905     25907     25906     25908     25910     25909     25911
     25913     25912     25914     25916     25915     25917     25919     25918     25920
     25922     25921     25923     25925     25924     25926     25928     25927     25929
     25931     25930     25932     25934     25933     25935     25937     25936     25938
     25940     25939     25941     25943     25942     25944     25946     25945     25947
     25949     25948     25950     25952     25951     25953     25955     25954     25956
     25958     25957     25959     25961     25960     25962     25964     25963     25965
     25967     25966     25968     25970     25969     25971     25973     25972     25974
     25976     25975     25977     25979     25978     25980     25982     25981     25983
     25985     25984     25986     25988     25987     25989     25991     25990     25992
     25994     25993     25995     25997     25996     25998     26000     25999     26001
     26003     26002     26004     26006     26005     26007     26009     26008     26010
     26012     26011     26013     26015     26014     26016     26018     26017     26019
     26021     26020     26022     26024     26023     26025     26027     26026     26028
     26030     26029     26031     26033     26032     26034     26036     26035     26037
     26039     26038     26040     26042     26041     26043     26045     26044     26046
     26048     26047     26049     26051     26050     26052     26054     26053     26055
     26057     26056     26058     26060     26059     26061     26063     26062     26064
     26066     26065     26067     26069     26068     26070     26072     26071     26073
     26075     26074     26076     26078     26077     26079     26081     26080     26082
     26084     26083     26085     26087     26086     26088     26090     26089     26091
     26093     26092     26094     26096     26095     26097     26099     26098     26100
     26102     26101     26103     26105     26104     26106     26108     26107     26109
     26111     26110     26112     26114     26113     26115     26117     26116     26118
     26120     26119     26121     26123     26122     26124     26126     26125     26127
     26129     26128     26130     26132     26131     26133     26135     26134     26136
     26138     26137     26139     26141     26140     26142     26144     26143     26145
     26147     26146     26148     26150     26149     26151     26153     26152     26154
     26156     26155     26157     26159     26158     26160     26162     26161     26163
     26165     26164     26166     26168     26167     26169     26171     26170     26172
     26174     26173     26175     26177     26176     26178     26180     26179     26181
     26183     26182     26184     26186     26185     26187     26189     26188     26190
     26192     26191     26193     26195     26194     26196     26198     26197     26199
     26201     26200     26202     26204     26203     26205     26207     26206     26208
     26210     26209     26211     26213     26212     26214     26216     26215     26217
     26219     26218     26220     26222     26221     26223     26225     26224     26226
     26228     26227     26229     26231     26230     26232     26234     26233     26235
     26237     26236     26238     26240     26239     26241     26243     26242     26244
     26246     26245     26247     26249     26248     26250     26252     26251     26253
     26255     26254     26256     26258     26257     26259     26261     26260     26262
     26264     26263     26265     26267     26266     26268     26270     26269     26271
     26273     26272     26274     26276     26275     26277     26279     26278     26280
     26282     26281     26283     26285     26284     26286     26288     26287     26289
     26291     26290     26292     26294     26293     26295     26297     26296     26298
     26300     26299     26301     26303     26302     26304     26306     26305     26307
     26309     26308     26310     26312     26311     26313     26315     26314     26316
     26318     26317     26319     26321     26320     26322     26324     26323     26325
     26327     26326     26328     26330     26329     26331     26333     26332     26334
     26336     26335     26337     26339     26338     26340     26342     26341     26343
     26345     26344     26346     26348     26347     26349     26351     26350     26352
     26354     26353     26355     26357     26356     26358     26360     26359     26361
     26363     26362     26364     26366     26365     26367     26369     26368     26370
     26372     26371     26373     26375     26374     26376     26378     26377     26379
     26381     26380     26382     26384     26383     26385     26387     26386     26388
     26390     26389     26391     26393     26392     26394     26396     26395     26397
     26399     26398     26400     26402     26401     26403     26405     26404     26406
     26408     26407     26409     26411     26410     26412     26414     26413     26415
     26417     26416     26418     26420     26419     26421     26423     26422     26424
     26426     26425     26427     26429     26428     26430     26432     26431     26433
     26435     26434     26436     26438     26437     26439     26441     26440     26442
     26444     26443     26445     26447     26446     26448     26450     26449     26451
     26453     26452     26454     26456     26455     26457     26459     26458     26460
     26462     26461     26463     26465     26464     26466     26468     26467     26469
     26471     26470     26472     26474     26473     26475     26477     26476     26478
     26480     26479     26481     26483     26482     26484     26486     26485     26487
     26489     26488     26490     26492     26491     26493     26495     26494     26496
     26498     26497     26499     26501     26500     26502     26504     26503     26505
     26507     26506     26508     26510     26509     26511     26513     26512     26514
     26516     26515     26517     26519     26518     26520     26522     26521     26523
     26525     26524     26526     26528     26527     26529     26531     26530     26532
     26534     26533     26535     26537     26536     26538     26540     26539     26541
     26543     26542     26544     26546     26545     26547     26549     26548     26550
     26552     26551     26553     26555     26554     26556     26558     26557     26559
     26561     26560     26562     26564     26563     26565     26567     26566     26568
     26570     26569     26571     26573     26572     26574     26576     26575     26577
     26579     26578     26580     26582     26581     26583     26585     26584     26586
     26588     26587     26589     26591     26590     26592     26594     26593     26595
     26597     26596     26598     26600     26599     26601     26603     26602     26604
     26606     26605     26607     26609     26608     26610     26612     26611     26613
     26615     26614     26616     26618     26617     26619     26621     26620     26622
     26624     26623     26625     26627     26626     26628     26630     26629     26631
     26633     26632     26634     26636     26635     26637     26639     26638     26640
     26642     26641     26643     26645     26644     26646     26648     26647     26649
     26651     26650     26652     26654     26653     26655     26657     26656     26658
     26660     26659     26661     26663     26662     26664     26666     26665     26667
     26669     26668     26670     26672     26671     26673     26675     26674     26676
     26678     26677     26679     26681     26680     26682     26684     26683     26685
     26687     26686     26688     26690     26689     26691     26693     26692     26694
     26696     26695     26697     26699     26698     26700     26702     26701     26703
     26705     26704     26706     26708     26707     26709     26711     26710     26712
     26714     26713     26715     26717     26716     26718     26720     26719     26721
     26723     26722     26724     26726     26725     26727     26729     26728     26730
     26732     26731     26733     26735     26734     26736     26738     26737     26739
     26741     26740     26742     26744     26743     26745     26747     26746     26748
     26750     26749     26751     26753     26752     26754     26756     26755     26757
     26759     26758     26760     26762     26761     26763     26765     26764     26766
     26768     26767     26769     26771     26770     26772     26774     26773     26775
     26777     26776     26778     26780     26779     26781     26783     26782     26784
     26786     26785     26787     26789     26788     26790     26792     26791     26793
     26795     26794     26796     26798     26797     26799     26801     26800     26802
     26804     26803     26805     26807     26806     26808     26810     26809     26811
     26813     26812     26814     26816     26815     26817     26819     26818     26820
     26822     26821     26823     26825     26824     26826     26828     26827     26829
     26831     26830     26832     26834     26833     26835     26837     26836     26838
     26840     26839     26841     26843     26842     26844     26846     26845     26847
     26849     26848     26850     26852     26851     26853     26855     26854     26856
     26858     26857     26859     26861     26860     26862     26864     26863     26865
     26867     26866     26868     26870     26869     26871     26873     26872     26874
     26876     26875     26877     26879     26878     26880     26882     26881     26883
     26885     26884     26886     26888     26887     26889     26891     26890     26892
     26894     26893     26895     26897     26896     26898     26900     26899     26901
     26903     26902     26904     26906     26905     26907     26909     26908     26910
     26912     26911     26913     26915     26914     26916     26918     26917     26919
     26921     26920     26922     26924     26923     26925     26927     26926     26928
     26930     26929     26931     26933     26932     26934     26936     26935     26937
     26939     26938     26940     26942     26941     26943     26945     26944     26946
     26948     26947     26949     26951     26950     26952     26954     26953     26955
     26957     26956     26958     26960     26959     26961     26963     26962     26964
     26966     26965     26967     26969     26968     26970     26972     26971     26973
     26975     26974     26976     26978     26977     26979     26981     26980     26982
     26984     26983     26985     26987     26986     26988     26990     26989     26991
     26993     26992     26994     26996     26995     26997     26999     26998     27000
     27002     27001     27003     27005     27004     27006     27008     27007     27009
     27011     27010     27012     27014     27013     27015     27017     27016     27018
     27020     27019     27021     27023     27022     27024     27026     27025     27027
     27029     27028     27030     27032     27031     27033     27035     27034     27036
     27038     27037     27039     27041     27040     27042     27044     27043     27045
     27047     27046     27048     27050     27049     27051     27053     27052     27054
     27056     27055     27057     27059     27058     27060     27062     27061     27063
     27065     27064     27066     27068     27067     27069     27071     27070     27072
     27074     27073     27075     27077     27076     27078     27080     27079     27081
     27083     27082     27084     27086     27085     27087     27089     27088     27090
     27092     27091     27093     27095     27094     27096     27098     27097     27099
     27101     27100     27102     27104     27103     27105     27107     27106     27108
     27110     27109     27111     27113     27112     27114     27116     27115     27117
     27119     27118     27120     27122     27121     27123     27125     27124     27126
     27128     27127     27129     27131     27130     27132     27134     27133     27135
     27137     27136     27138     27140     27139     27141     27143     27142     27144
     27146     27145     27147     27149     27148     27150     27152     27151     27153
     27155     27154     27156     27158     27157     27159     27161     27160     27162
     27164     27163     27165     27167     27166     27168     27170     27169     27171
     27173     27172     27174     27176     27175     27177     27179     27178     27180
     27182     27181     27183     27185     27184     27186     27188     27187     27189
     27191     27190     27192     27194     27193     27195     27197     27196     27198
     27200     27199     27201     27203     27202     27204     27206     27205     27207
     27209     27208     27210     27212     27211     27213     27215     27214     27216
     27218     27217     27219     27221     27220     27222     27224     27223     27225
     27227     27226     27228     27230     27229     27231     27233     27232     27234
     27236     27235     27237     27239     27238     27240     27242     27241     27243
     27245     27244     27246     27248     27247     27249     27251     27250     27252
     27254     27253     27255     27257     27256     27258     27260     27259     27261
     27263     27262     27264     27266     27265     27267     27269     27268     27270
     27272     27271     27273     27275     27274     27276     27278     27277     27279
     27281     27280     27282     27284     27283     27285     27287     27286     27288
     27290     27289     27291     27293     27292     27294     27296     27295     27297
     27299     27298     27300     27302     27301     27303     27305     27304     27306
     27308     27307     27309     27311     27310     27312     27314     27313     27315
     27317     27316     27318     27320     27319     27321     27323     27322     27324
     27326     27325     27327     27329     27328     27330     27332     27331     27333
     27335     27334     27336     27338     27337     27339     27341     27340     27342
     27344     27343     27345     27347     27346     27348     27350     27349     27351
     27353     27352     27354     27356     27355     27357     27359     27358     27360
     27362     27361     27363     27365     27364     27366     27368     27367     27369
     27371     27370     27372     27374     27373     27375     27377     27376     27378
     27380     27379     27381     27383     27382     27384     27386     27385     27387
     27389     27388     27390     27392     27391     27393     27395     27394     27396
     27398     27397     27399     27401     27400     27402     27404     27403     27405
     27407     27406     27408     27410     27409     27411     27413     27412     27414
     27416     27415     27417     27419     27418     27420     27422     27421     27423
     27425     27424     27426     27428     27427     27429     27431     27430     27432
     27434     27433     27435     27437     27436     27438     27440     27439     27441
     27443     27442     27444     27446     27445     27447     27449     27448     27450
     27452     27451     27453     27455     27454     27456     27458     27457     27459
     27461     27460     27462     27464     27463     27465     27467     27466     27468
     27470     27469     27471     27473     27472     27474     27476     27475     27477
     27479     27478     27480     27482     27481     27483     27485     27484     27486
     27488     27487     27489     27491     27490     27492     27494     27493     27495
     27497     27496     27498     27500     27499     27501     27503     27502     27504
     27506     27505     27507     27509     27508     27510     27512     27511     27513
     27515     27514     27516     27518     27517     27519     27521     27520     27522
     27524     27523     27525     27527     27526     27528     27530     27529     27531
     27533     27532     27534     27536     27535     27537     27539     27538     27540
     27542     27541     27543     27545     27544     27546     27548     27547     27549
     27551     27550     27552     27554     27553     27555     27557     27556     27558
     27560     27559     27561     27563     27562     27564     27566     27565     27567
     27569     27568     27570     27572     27571     27573     27575     27574     27576
     27578     27577     27579     27581     27580     27582     27584     27583     27585
     27587     27586     27588     27590     27589     27591     27593     27592     27594
     27596     27595     27597     27599     27598     27600     27602     27601     27603
     27605     27604     27606     27608     27607     27609     27611     27610     27612
     27614     27613     27615     27617     27616     27618     27620     27619     27621
     27623     27622     27624     27626     27625     27627     27629     27628     27630
     27632     27631     27633     27635     27634     27636     27638     27637     27639
     27641     27640     27642     27644     27643     27645     27647     27646     27648
     27650     27649     27651     27653     27652     27654     27656     27655     27657
     27659     27658     27660     27662     27661     27663     27665     27664     27666
     27668     27667     27669     27671     27670     27672     27674     27673     27675
     27677     27676     27678     27680     27679     27681     27683     27682     27684
     27686     27685     27687     27689     27688     27690     27692     27691     27693
     27695     27694     27696     27698     27697     27699     27701     27700     27702
     27704     27703     27705     27707     27706     27708     27710     27709     27711
     27713     27712     27714     27716     27715     27717     27719     27718     27720
     27722     27721     27723     27725     27724     27726     27728     27727     27729
     27731     27730     27732     27734     27733     27735     27737     27736     27738
     27740     27739     27741     27743     27742     27744     27746     27745     27747
     27749     27748     27750     27752     27751     27753     27755     27754     27756
     27758     27757     27759     27761     27760     27762     27764     27763     27765
     27767     27766     27768     27770     27769     27771     27773     27772     27774
     27776     27775     27777     27779     27778     27780     27782     27781     27783
     27785     27784     27786     27788     27787     27789     27791     27790     27792
     27794     27793     27795     27797     27796     27798     27800     27799     27801
     27803     27802     27804     27806     27805     27807     27809     27808     27810
     27812     27811     27813     27815     27814     27816     27818     27817     27819
     27821     27820     27822     27824     27823     27825     27827     27826     27828
     27830     27829     27831     27833     27832     27834     27836     27835     27837
     27839     27838     27840     27842     27841     27843     27845     27844     27846
     27848     27847     27849     27851     27850     27852     27854     27853     27855
     27857     27856     27858     27860     27859     27861     27863     27862     27864
     27866     27865     27867     27869     27868     27870     27872     27871     27873
     27875     27874     27876     27878     27877     27879     27881     27880     27882
     27884     27883     27885     27887     27886     27888     27890     27889     27891
     27893     27892     27894     27896     27895     27897     27899     27898     27900
     27902     27901     27903     27905     27904     27906     27908     27907     27909
     27911     27910     27912     27914     27913     27915     27917     27916     27918
     27920     27919     27921     27923     27922     27924     27926     27925     27927
     27929     27928     27930     27932     27931     27933     27935     27934     27936
     27938     27937     27939     27941     27940     27942     27944     27943     27945
     27947     27946     27948     27950     27949     27951     27953     27952     27954
     27956     27955     27957     27959     27958     27960     27962     27961     27963
     27965     27964     27966     27968     27967     27969     27971     27970     27972
     27974     27973     27975     27977     27976     27978     27980     27979     27981
     27983     27982     27984     27986     27985     27987     27989     27988     27990
     27992     27991     27993     27995     27994     27996     27998     27997     27999
     28001     28000     28002     28004     28003     28005     28007     28006     28008
     28010     28009     28011     28013     28012     28014     28016     28015     28017
     28019     28018     28020     28022     28021     28023     28025     28024     28026
     28028     28027     28029     28031     28030     28032     28034     28033     28035
     28037     28036     28038     28040     28039     28041     28043     28042     28044
     28046     28045     28047     28049     28048     28050     28052     28051     28053
     28055     28054     28056     28058     28057     28059     28061     28060     28062
     28064     28063     28065     28067     28066     28068     28070     28069     28071
     28073     28072     28074     28076     28075     28077     28079     28078     28080
     28082     28081     28083     28085     28084     28086     28088     28087     28089
     28091     28090     28092     28094     28093     28095     28097     28096     28098
     28100     28099     28101     28103     28102     28104     28106     28105     28107
     28109     28108     28110     28112     28111     28113     28115     28114     28116
     28118     28117     28119     28121     28120     28122     28124     28123     28125
     28127     28126     28128     28130     28129     28131     28133     28132     28134
     28136     28135     28137     28139     28138     28140     28142     28141     28143
     28145     28144     28146     28148     28147     28149     28151     28150     28152
     28154     28153     28155     28157     28156     28158     28160     28159     28161
     28163     28162     28164     28166     28165     28167     28169     28168     28170
     28172     28171     28173     28175     28174     28176     28178     28177     28179
     28181     28180     28182     28184     28183     28185     28187     28186     28188
     28190     28189     28191     28193     28192     28194     28196     28195     28197
     28199     28198     28200     28202     28201     28203     28205     28204     28206
     28208     28207     28209     28211     28210     28212     28214     28213     28215
     28217     28216     28218     28220     28219     28221     28223     28222     28224
     28226     28225     28227     28229     28228     28230     28232     28231     28233
     28235     28234     28236     28238     28237     28239     28241     28240     28242
     28244     28243     28245     28247     28246     28248     28250     28249     28251
     28253     28252     28254     28256     28255     28257     28259     28258     28260
     28262     28261     28263     28265     28264     28266     28268     28267     28269
     28271     28270     28272     28274     28273     28275     28277     28276     28278
     28280     28279     28281     28283     28282     28284     28286     28285     28287
     28289     28288     28290     28292     28291     28293     28295     28294     28296
     28298     28297     28299     28301     28300     28302     28304     28303     28305
     28307     28306     28308     28310     28309     28311     28313     28312     28314
     28316     28315     28317     28319     28318     28320     28322     28321     28323
     28325     28324     28326     28328     28327     28329     28331     28330     28332
     28334     28333     28335     28337     28336     28338     28340     28339     28341
     28343     28342     28344     28346     28345     28347     28349     28348     28350
     28352     28351     28353     28355     28354     28356     28358     28357     28359
     28361     28360     28362     28364     28363     28365     28367     28366     28368
     28370     28369     28371     28373     28372     28374     28376     28375     28377
     28379     28378     28380     28382     28381     28383     28385     28384     28386
     28388     28387     28389     28391     28390     28392     28394     28393     28395
     28397     28396     28398     28400     28399     28401     28403     28402     28404
     28406     28405     28407     28409     28408     28410     28412     28411     28413
     28415     28414     28416     28418     28417     28419     28421     28420     28422
     28424     28423     28425     28427     28426     28428     28430     28429     28431
     28433     28432     28434     28436     28435     28437     28439     28438     28440
     28442     28441     28443     28445     28444     28446     28448     28447     28449
     28451     28450     28452     28454     28453     28455     28457     28456     28458
     28460     28459     28461     28463     28462     28464     28466     28465     28467
     28469     28468     28470     28472     28471     28473     28475     28474     28476
     28478     28477     28479     28481     28480     28482     28484     28483     28485
     28487     28486     28488     28490     28489     28491     28493     28492     28494
     28496     28495     28497     28499     28498     28500     28502     28501     28503
     28505     28504     28506     28508     28507     28509     28511     28510     28512
     28514     28513     28515     28517     28516     28518     28520     28519     28521
     28523     28522     28524     28526     28525     28527     28529     28528     28530
     28532     28531     28533     28535     28534     28536     28538     28537     28539
     28541     28540     28542     28544     28543     28545     28547     28546     28548
     28550     28549     28551     28553     28552     28554     28556     28555     28557
     28559     28558     28560     28562     28561     28563     28565     28564     28566
     28568     28567     28569     28571     28570     28572     28574     28573     28575
     28577     28576     28578     28580     28579     28581     28583     28582     28584
     28586     28585     28587     28589     28588     28590     28592     28591     28593
     28595     28594     28596     28598     28597     28599     28601     28600     28602
     28604     28603     28605     28607     28606     28608     28610     28609     28611
     28613     28612     28614     28616     28615     28617     28619     28618     28620
     28622     28621     28623     28625     28624     28626     28628     28627     28629
     28631     28630     28632     28634     28633     28635     28637     28636     28638
     28640     28639     28641     28643     28642     28644     28646     28645     28647
     28649     28648     28650     28652     28651     28653     28655     28654     28656
     28658     28657     28659     28661     28660     28662     28664     28663     28665
     28667     28666     28668     28670     28669     28671     28673     28672     28674
     28676     28675     28677     28679     28678     28680     28682     28681     28683
     28685     28684     28686     28688     28687     28689     28691     28690     28692
     28694     28693     28695     28697     28696     28698     28700     28699     28701
     28703     28702     28704     28706     28705     28707     28709     28708     28710
     28712     28711     28713     28715     28714     28716     28718     28717     28719
     28721     28720     28722     28724     28723     28725     28727     28726     28728
     28730     28729     28731     28733     28732     28734     28736     28735     28737
     28739     28738     28740     28742     28741     28743     28745     28744     28746
     28748     28747     28749     28751     28750     28752     28754     28753     28755
     28757     28756     28758     28760     28759     28761     28763     28762     28764
     28766     28765     28767     28769     28768     28770     28772     28771     28773
     28775     28774     28776     28778     28777     28779     28781     28780     28782
     28784     28783     28785     28787     28786     28788     28790     28789     28791
     28793     28792     28794     28796     28795     28797     28799     28798     28800
     28802     28801     28803     28805     28804     28806     28808     28807     28809
     28811     28810     28812     28814     28813     28815     28817     28816     28818
     28820     28819     28821     28823     28822     28824     28826     28825     28827
     28829     28828     28830     28832     28831     28833     28835     28834     28836
     28838     28837     28839     28841     28840     28842     28844     28843     28845
     28847     28846     28848     28850     28849     28851     28853     28852     28854
     28856     28855     28857     28859     28858     28860     28862     28861     28863
     28865     28864     28866     28868     28867     28869     28871     28870     28872
     28874     28873     28875     28877     28876     28878     28880     28879     28881
     28883     28882     28884     28886     28885     28887     28889     28888     28890
     28892     28891     28893     28895     28894     28896     28898     28897     28899
     28901     28900     28902     28904     28903     28905     28907     28906     28908
     28910     28909     28911     28913     28912     28914     28916     28915     28917
     28919     28918     28920     28922     28921     28923     28925     28924     28926
     28928     28927     28929     28931     28930     28932     28934     28933     28935
     28937     28936     28938     28940     28939     28941     28943     28942     28944
     28946     28945     28947     28949     28948     28950     28952     28951     28953
     28955     28954     28956     28958     28957     28959     28961     28960     28962
     28964     28963     28965     28967     28966     28968     28970     28969     28971
     28973     28972     28974     28976     28975     28977     28979     28978     28980
     28982     28981     28983     28985     28984     28986     28988     28987     28989
     28991     28990     28992     28994     28993     28995     28997     28996     28998
     29000     28999     29001     29003     29002     29004     29006     29005     29007
     29009     29008     29010     29012     29011     29013     29015     29014     29016
     29018     29017     29019     29021     29020     29022     29024     29023     29025
     29027     29026     29028     29030     29029     29031     29033     29032     29034
     29036     29035     29037     29039     29038     29040     29042     29041     29043
     29045     29044     29046     29048     29047     29049     29051     29050     29052
     29054     29053     29055     29057     29056     29058     29060     29059     29061
     29063     29062     29064     29066     29065     29067     29069     29068     29070
     29072     29071     29073     29075     29074     29076     29078     29077     29079
     29081     29080     29082     29084     29083     29085     29087     29086     29088
     29090     29089     29091     29093     29092     29094     29096     29095     29097
     29099     29098     29100     29102     29101     29103     29105     29104     29106
     29108     29107     29109     29111     29110     29112     29114     29113     29115
     29117     29116     29118     29120     29119     29121     29123     29122     29124
     29126     29125     29127     29129     29128     29130     29132     29131     29133
     29135     29134     29136     29138     29137     29139     29141     29140     29142
     29144     29143     29145     29147     29146     29148     29150     29149     29151
     29153     29152     29154     29156     29155     29157     29159     29158     29160
     29162     29161     29163     29165     29164     29166     29168     29167     29169
     29171     29170     29172     29174     29173     29175     29177     29176     29178
     29180     29179     29181     29183     29182     29184     29186     29185     29187
     29189     29188     29190     29192     29191     29193     29195     29194     29196
     29198     29197     29199     29201     29200     29202     29204     29203     29205
     29207     29206     29208     29210     29209     29211     29213     29212     29214
     29216     29215     29217     29219     29218     29220     29222     29221     29223
     29225     29224     29226     29228     29227     29229     29231     29230     29232
     29234     29233     29235     29237     29236     29238     29240     29239     29241
     29243     29242     29244     29246     29245     29247     29249     29248     29250
     29252     29251     29253     29255     29254     29256     29258     29257     29259
     29261     29260     29262     29264     29263     29265     29267     29266     29268
     29270     29269     29271     29273     29272     29274     29276     29275     29277
     29279     29278     29280     29282     29281     29283     29285     29284     29286
     29288     29287     29289     29291     29290     29292     29294     29293     29295
     29297     29296     29298     29300     29299     29301     29303     29302     29304
     29306     29305     29307     29309     29308     29310     29312     29311     29313
     29315     29314     29316     29318     29317     29319     29321     29320     29322
     29324     29323     29325     29327     29326     29328     29330     29329     29331
     29333     29332     29334     29336     29335     29337     29339     29338     29340
     29342     29341     29343     29345     29344     29346     29348     29347     29349
     29351     29350     29352     29354     29353     29355     29357     29356     29358
     29360     29359     29361     29363     29362     29364     29366     29365     29367
     29369     29368     29370     29372     29371     29373     29375     29374     29376
     29378     29377     29379     29381     29380     29382     29384     29383     29385
     29387     29386     29388     29390     29389     29391     29393     29392     29394
     29396     29395     29397     29399     29398     29400     29402     29401     29403
     29405     29404     29406     29408     29407     29409     29411     29410     29412
     29414     29413     29415     29417     29416     29418     29420     29419     29421
     29423     29422     29424     29426     29425     29427     29429     29428     29430
     29432     29431     29433     29435     29434     29436     29438     29437     29439
     29441     29440     29442     29444     29443     29445     29447     29446     29448
     29450     29449     29451     29453     29452     29454     29456     29455     29457
     29459     29458     29460     29462     29461     29463     29465     29464     29466
     29468     29467     29469     29471     29470     29472     29474     29473     29475
     29477     29476     29478     29480     29479     29481     29483     29482     29484
     29486     29485     29487     29489     29488     29490     29492     29491     29493
     29495     29494     29496     29498     29497     29499     29501     29500     29502
     29504     29503     29505     29507     29506     29508     29510     29509     29511
     29513     29512     29514     29516     29515     29517     29519     29518     29520
     29522     29521     29523     29525     29524     29526     29528     29527     29529
     29531     29530     29532     29534     29533     29535     29537     29536     29538
     29540     29539     29541     29543     29542     29544     29546     29545     29547
     29549     29548     29550     29552     29551     29553     29555     29554     29556
     29558     29557     29559     29561     29560     29562     29564     29563     29565
     29567     29566     29568     29570     29569     29571     29573     29572     29574
     29576     29575     29577     29579     29578     29580     29582     29581     29583
     29585     29584     29586     29588     29587     29589     29591     29590     29592
     29594     29593     29595     29597     29596     29598     29600     29599     29601
     29603     29602     29604     29606     29605     29607     29609     29608     29610
     29612     29611     29613     29615     29614     29616     29618     29617     29619
     29621     29620     29622     29624     29623     29625     29627     29626     29628
     29630     29629     29631     29633     29632     29634     29636     29635     29637
     29639     29638     29640     29642     29641     29643     29645     29644     29646
     29648     29647     29649     29651     29650     29652     29654     29653     29655
     29657     29656     29658     29660     29659     29661     29663     29662     29664
     29666     29665     29667     29669     29668     29670     29672     29671     29673
     29675     29674     29676     29678     29677     29679     29681     29680     29682
     29684     29683     29685     29687     29686     29688     29690     29689     29691
     29693     29692     29694     29696     29695     29697     29699     29698     29700
     29702     29701     29703     29705     29704     29706     29708     29707     29709
     29711     29710     29712     29714     29713     29715     29717     29716     29718
     29720     29719     29721     29723     29722     29724     29726     29725     29727
     29729     29728     29730     29732     29731     29733     29735     29734     29736
     29738     29737     29739     29741     29740     29742     29744     29743     29745
     29747     29746     29748     29750     29749     29751     29753     29752     29754
     29756     29755     29757     29759     29758     29760     29762     29761     29763
     29765     29764     29766     29768     29767     29769     29771     29770     29772
     29774     29773     29775     29777     29776     29778     29780     29779     29781
     29783     29782     29784     29786     29785     29787     29789     29788     29790
     29792     29791     29793     29795     29794     29796     29798     29797     29799
     29801     29800     29802     29804     29803     29805     29807     29806     29808
     29810     29809     29811     29813     29812     29814     29816     29815     29817
     29819     29818     29820     29822     29821     29823     29825     29824     29826
     29828     29827     29829     29831     29830     29832     29834     29833     29835
     29837     29836     29838     29840     29839     29841     29843     29842     29844
     29846     29845     29847     29849     29848     29850     29852     29851     29853
     29855     29854     29856     29858     29857     29859     29861     29860     29862
     29864     29863     29865     29867     29866     29868     29870     29869     29871
     29873     29872     29874     29876     29875     29877     29879     29878     29880
     29882     29881     29883     29885     29884     29886     29888     29887     29889
     29891     29890     29892     29894     29893     29895     29897     29896     29898
     29900     29899     29901     29903     29902     29904     29906     29905     29907
     29909     29908     29910     29912     29911     29913     29915     29914     29916
     29918     29917     29919     29921     29920     29922     29924     29923     29925
     29927     29926     29928     29930     29929     29931     29933     29932     29934
     29936     29935     29937     29939     29938     29940     29942     29941     29943
     29945     29944     29946     29948     29947     29949     29951     29950     29952
     29954     29953     29955     29957     29956     29958     29960     29959     29961
     29963     29962     29964     29966     29965     29967     29969     29968     29970
     29972     29971     29973     29975     29974     29976     29978     29977     29979
     29981     29980     29982     29984     29983     29985     29987     29986     29988
     29990     29989     29991     29993     29992     29994     29996     29995     29997
     29999     29998     30000     30002     30001     30003     30005     30004     30006
     30008     30007     30009     30011     30010     30012     30014     30013     30015
     30017     30016     30018     30020     30019     30021     30023     30022     30024
     30026     30025     30027     30029     30028     30030     30032     30031     30033
     30035     30034     30036     30038     30037     30039     30041     30040     30042
     30044     30043     30045     30047     30046     30048     30050     30049     30051
     30053     30052     30054     30056     30055     30057     30059     30058     30060
     30062     30061     30063     30065     30064     30066     30068     30067     30069
     30071     30070     30072     30074     30073     30075     30077     30076     30078
     30080     30079     30081     30083     30082     30084     30086     30085     30087
     30089     30088     30090     30092     30091     30093     30095     30094     30096
     30098     30097     30099     30101     30100     30102     30104     30103     30105
     30107     30106     30108     30110     30109     30111     30113     30112     30114
     30116     30115     30117     30119     30118     30120     30122     30121     30123
     30125     30124     30126     30128     30127     30129     30131     30130     30132
     30134     30133     30135     30137     30136     30138     30140     30139     30141
     30143     30142     30144     30146     30145     30147     30149     30148     30150
     30152     30151     30153     30155     30154     30156     30158     30157     30159
     30161     30160     30162     30164     30163     30165     30167     30166     30168
     30170     30169     30171     30173     30172     30174     30176     30175     30177
     30179     30178     30180     30182     30181     30183     30185     30184     30186
     30188     30187     30189     30191     30190     30192     30194     30193     30195
     30197     30196     30198     30200     30199     30201     30203     30202     30204
     30206     30205     30207     30209     30208     30210     30212     30211     30213
     30215     30214     30216     30218     30217     30219     30221     30220     30222
     30224     30223     30225     30227     30226     30228     30230     30229     30231
     30233     30232     30234     30236     30235     30237     30239     30238     30240
     30242     30241     30243     30245     30244     30246     30248     30247     30249
     30251     30250     30252     30254     30253     30255     30257     30256     30258
     30260     30259     30261     30263     30262     30264     30266     30265     30267
     30269     30268     30270     30272     30271     30273     30275     30274     30276
     30278     30277     30279     30281     30280     30282     30284     30283     30285
     30287     30286     30288     30290     30289     30291     30293     30292     30294
     30296     30295     30297     30299     30298     30300     30302     30301     30303
     30305     30304     30306     30308     30307     30309     30311     30310     30312
     30314     30313     30315     30317     30316     30318     30320     30319     30321
     30323     30322     30324     30326     30325     30327     30329     30328     30330
     30332     30331     30333     30335     30334     30336     30338     30337     30339
     30341     30340     30342     30344     30343     30345     30347     30346     30348
     30350     30349     30351     30353     30352     30354     30356     30355     30357
     30359     30358     30360     30362     30361     30363     30365     30364     30366
     30368     30367     30369     30371     30370     30372     30374     30373     30375
     30377     30376     30378     30380     30379     30381     30383     30382     30384
     30386     30385     30387     30389     30388     30390     30392     30391     30393
     30395     30394     30396     30398     30397     30399     30401     30400     30402
     30404     30403     30405     30407     30406     30408     30410     30409     30411
     30413     30412     30414     30416     30415     30417     30419     30418     30420
     30422     30421     30423     30425     30424     30426     30428     30427     30429
     30431     30430     30432     30434     30433     30435     30437     30436     30438
     30440     30439     30441     30443     30442     30444     30446     30445     30447
     30449     30448     30450     30452     30451     30453     30455     30454     30456
     30458     30457     30459     30461     30460     30462     30464     30463     30465
     30467     30466     30468     30470     30469     30471     30473     30472     30474
     30476     30475     30477     30479     30478     30480     30482     30481     30483
     30485     30484     30486     30488     30487     30489     30491     30490     30492
     30494     30493     30495     30497     30496     30498     30500     30499     30501
     30503     30502     30504     30506     30505     30507     30509     30508     30510
     30512     30511     30513     30515     30514     30516     30518     30517     30519
     30521     30520     30522     30524     30523     30525     30527     30526     30528
     30530     30529     30531     30533     30532     30534     30536     30535     30537
     30539     30538     30540     30542     30541     30543     30545     30544     30546
     30548     30547     30549     30551     30550     30552     30554     30553     30555
     30557     30556     30558     30560     30559     30561     30563     30562     30564
     30566     30565     30567     30569     30568     30570     30572     30571     30573
     30575     30574     30576     30578     30577     30579     30581     30580     30582
     30584     30583     30585     30587     30586     30588     30590     30589     30591
     30593     30592     30594     30596     30595     30597     30599     30598     30600
     30602     30601     30603     30605     30604     30606     30608     30607     30609
     30611     30610     30612     30614     30613     30615     30617     30616     30618
     30620     30619     30621     30623     30622     30624     30626     30625     30627
     30629     30628     30630     30632     30631     30633     30635     30634     30636
     30638     30637     30639     30641     30640     30642     30644     30643     30645
     30647     30646     30648     30650     30649     30651     30653     30652     30654
     30656     30655     30657     30659     30658     30660     30662     30661     30663
     30665     30664     30666     30668     30667     30669     30671     30670     30672
     30674     30673     30675     30677     30676     30678     30680     30679     30681
     30683     30682     30684     30686     30685     30687     30689     30688     30690
     30692     30691     30693     30695     30694     30696     30698     30697     30699
     30701     30700     30702     30704     30703     30705     30707     30706     30708
     30710     30709     30711     30713     30712     30714     30716     30715     30717
     30719     30718     30720     30722     30721     30723     30725     30724     30726
     30728     30727     30729     30731     30730     30732     30734     30733     30735
     30737     30736     30738     30740     30739     30741     30743     30742     30744
     30746     30745     30747     30749     30748     30750     30752     30751     30753
     30755     30754     30756     30758     30757     30759     30761     30760     30762
     30764     30763     30765     30767     30766     30768     30770     30769     30771
     30773     30772     30774     30776     30775     30777     30779     30778     30780
     30782     30781     30783     30785     30784     30786     30788     30787     30789
     30791     30790     30792     30794     30793     30795     30797     30796     30798
     30800     30799     30801     30803     30802     30804     30806     30805     30807
     30809     30808     30810     30812     30811     30813     30815     30814     30816
     30818     30817     30819     30821     30820     30822     30824     30823     30825
     30827     30826     30828     30830     30829     30831     30833     30832     30834
     30836     30835     30837     30839     30838     30840     30842     30841     30843
     30845     30844     30846     30848     30847     30849     30851     30850     30852
     30854     30853     30855     30857     30856     30858     30860     30859     30861
     30863     30862     30864     30866     30865     30867     30869     30868     30870
     30872     30871     30873     30875     30874     30876     30878     30877     30879
     30881     30880     30882     30884     30883     30885     30887     30886     30888
     30890     30889     30891     30893     30892     30894     30896     30895     30897
     30899     30898     30900     30902     30901     30903     30905     30904     30906
     30908     30907     30909     30911     30910     30912     30914     30913     30915
     30917     30916     30918     30920     30919     30921     30923     30922     30924
     30926     30925     30927     30929     30928     30930     30932     30931     30933
     30935     30934     30936     30938     30937     30939     30941     30940     30942
     30944     30943     30945     30947     30946     30948     30950     30949     30951
     30953     30952     30954     30956     30955     30957     30959     30958     30960
     30962     30961     30963     30965     30964     30966     30968     30967     30969
     30971     30970     30972     30974     30973     30975     30977     30976     30978
     30980     30979     30981     30983     30982     30984     30986     30985     30987
     30989     30988     30990     30992     30991     30993     30995     30994     30996
     30998     30997     30999     31001     31000     31002     31004     31003     31005
     31007     31006     31008     31010     31009     31011     31013     31012     31014
     31016     31015     31017     31019     31018     31020     31022     31021     31023
     31025     31024     31026     31028     31027     31029     31031     31030     31032
     31034     31033     31035     31037     31036     31038     31040     31039     31041
     31043     31042     31044     31046     31045     31047     31049     31048     31050
     31052     31051     31053     31055     31054     31056     31058     31057     31059
     31061     31060     31062     31064     31063     31065     31067     31066     31068
     31070     31069     31071     31073     31072     31074     31076     31075     31077
     31079     31078     31080     31082     31081     31083     31085     31084     31086
     31088     31087     31089     31091     31090     31092     31094     31093     31095
     31097     31096     31098     31100     31099     31101     31103     31102     31104
     31106     31105     31107     31109     31108     31110     31112     31111     31113
     31115     31114     31116     31118     31117     31119     31121     31120     31122
     31124     31123     31125     31127     31126     31128     31130     31129     31131
     31133     31132     31134     31136     31135     31137     31139     31138     31140
     31142     31141     31143     31145     31144     31146     31148     31147     31149
     31151     31150     31152     31154     31153     31155     31157     31156     31158
     31160     31159     31161     31163     31162     31164     31166     31165     31167
     31169     31168     31170     31172     31171     31173     31175     31174     31176
     31178     31177     31179     31181     31180     31182     31184     31183     31185
     31187     31186     31188     31190     31189     31191     31193     31192     31194
     31196     31195     31197     31199     31198     31200     31202     31201     31203
     31205     31204     31206     31208     31207     31209     31211     31210     31212
     31214     31213     31215     31217     31216     31218     31220     31219     31221
     31223     31222     31224     31226     31225     31227     31229     31228     31230
     31232     31231     31233     31235     31234     31236     31238     31237     31239
     31241     31240     31242     31244     31243     31245     31247     31246     31248
     31250     31249     31251     31253     31252     31254     31256     31255     31257
     31259     31258     31260     31262     31261     31263     31265     31264     31266
     31268     31267     31269     31271     31270     31272     31274     31273     31275
     31277     31276     31278     31280     31279     31281     31283     31282     31284
     31286     31285     31287     31289     31288     31290     31292     31291     31293
     31295     31294     31296     31298     31297     31299     31301     31300     31302
     31304     31303     31305     31307     31306     31308     31310     31309     31311
     31313     31312     31314     31316     31315     31317     31319     31318     31320
     31322     31321     31323     31325     31324     31326     31328     31327     31329
     31331     31330     31332     31334     31333     31335     31337     31336     31338
     31340     31339     31341     31343     31342     31344     31346     31345     31347
     31349     31348     31350     31352     31351     31353     31355     31354     31356
     31358     31357     31359     31361     31360     31362     31364     31363     31365
     31367     31366     31368     31370     31369     31371     31373     31372     31374
     31376     31375     31377     31379     31378     31380     31382     31381     31383
     31385     31384     31386     31388     31387     31389     31391     31390     31392
     31394     31393     31395     31397     31396     31398     31400     31399     31401
     31403     31402     31404     31406     31405     31407     31409     31408     31410
     31412     31411     31413     31415     31414     31416     31418     31417     31419
     31421     31420     31422     31424     31423     31425     31427     31426     31428
     31430     31429     31431     31433     31432     31434     31436     31435     31437
     31439     31438     31440     31442     31441     31443     31445     31444     31446
     31448     31447     31449     31451     31450     31452     31454     31453     31455
     31457     31456     31458     31460     31459     31461     31463     31462     31464
     31466     31465     31467     31469     31468     31470     31472     31471     31473
     31475     31474     31476     31478     31477     31479     31481     31480     31482
     31484     31483     31485     31487     31486     31488     31490     31489     31491
     31493     31492     31494     31496     31495     31497     31499     31498     31500
     31502     31501     31503     31505     31504     31506     31508     31507     31509
     31511     31510     31512     31514     31513     31515     31517     31516     31518
     31520     31519     31521     31523     31522     31524     31526     31525     31527
     31529     31528     31530     31532     31531     31533     31535     31534     31536
     31538     31537     31539     31541     31540     31542     31544     31543     31545
     31547     31546     31548     31550     31549     31551     31553     31552     31554
     31556     31555     31557     31559     31558     31560     31562     31561     31563
     31565     31564     31566     31568     31567     31569     31571     31570     31572
     31574     31573     31575     31577     31576     31578     31580     31579     31581
     31583     31582     31584     31586     31585     31587     31589     31588     31590
     31592     31591     31593     31595     31594     31596     31598     31597     31599
     31601     31600     31602     31604     31603     31605     31607     31606     31608
     31610     31609     31611     31613     31612     31614     31616     31615     31617
     31619     31618     31620     31622     31621     31623     31625     31624     31626
     31628     31627     31629     31631     31630     31632     31634     31633     31635
     31637     31636     31638     31640     31639     31641     31643     31642     31644
     31646     31645     31647     31649     31648     31650     31652     31651     31653
     31655     31654     31656     31658     31657     31659     31661     31660     31662
     31664     31663     31665     31667     31666     31668     31670     31669     31671
     31673     31672     31674     31676     31675     31677     31679     31678     31680
     31682     31681     31683     31685     31684     31686     31688     31687     31689
     31691     31690     31692     31694     31693     31695     31697     31696     31698
     31700     31699     31701     31703     31702     31704     31706     31705     31707
     31709     31708     31710     31712     31711     31713     31715     31714     31716
     31718     31717     31719     31721     31720     31722     31724     31723     31725
     31727     31726     31728     31730     31729     31731     31733     31732     31734
     31736     31735     31737     31739     31738     31740     31742     31741     31743
     31745     31744     31746     31748     31747     31749     31751     31750     31752
     31754     31753     31755     31757     31756     31758     31760     31759     31761
     31763     31762     31764     31766     31765     31767     31769     31768     31770
     31772     31771     31773     31775     31774     31776     31778     31777     31779
     31781     31780     31782     31784     31783     31785     31787     31786     31788
     31790     31789     31791     31793     31792     31794     31796     31795     31797
     31799     31798     31800     31802     31801     31803     31805     31804     31806
     31808     31807     31809     31811     31810     31812     31814     31813     31815
     31817     31816     31818     31820     31819     31821     31823     31822     31824
     31826     31825     31827     31829     31828     31830     31832     31831     31833
     31835     31834     31836     31838     31837     31839     31841     31840     31842
     31844     31843     31845     31847     31846     31848     31850     31849     31851
     31853     31852     31854     31856     31855     31857     31859     31858     31860
     31862     31861     31863     31865     31864     31866     31868     31867     31869
     31871     31870     31872     31874     31873     31875     31877     31876     31878
     31880     31879     31881     31883     31882     31884     31886     31885     31887
     31889     31888     31890     31892     31891     31893     31895     31894     31896
     31898     31897     31899     31901     31900     31902     31904     31903     31905
     31907     31906     31908     31910     31909     31911     31913     31912     31914
     31916     31915     31917     31919     31918     31920     31922     31921     31923
     31925     31924     31926     31928     31927     31929     31931     31930     31932
     31934     31933     31935     31937     31936     31938     31940     31939     31941
     31943     31942     31944     31946     31945     31947     31949     31948     31950
     31952     31951     31953     31955     31954     31956     31958     31957     31959
     31961     31960     31962     31964     31963     31965     31967     31966     31968
     31970     31969     31971     31973     31972     31974     31976     31975     31977
     31979     31978     31980     31982     31981     31983     31985     31984     31986
     31988     31987     31989     31991     31990     31992     31994     31993     31995
     31997     31996     31998     32000     31999     32001     32003     32002     32004
     32006     32005     32007     32009     32008     32010     32012     32011     32013
     32015     32014     32016     32018     32017     32019     32021     32020     32022
     32024     32023     32025     32027     32026     32028     32030     32029     32031
     32033     32032     32034     32036     32035     32037     32039     32038     32040
     32042     32041     32043     32045     32044     32046     32048     32047     32049
     32051     32050     32052     32054     32053     32055     32057     32056     32058
     32060     32059     32061     32063     32062     32064     32066     32065     32067
     32069     32068     32070     32072     32071     32073     32075     32074     32076
     32078     32077     32079     32081     32080     32082     32084     32083     32085
     32087     32086     32088     32090     32089     32091     32093     32092     32094
     32096     32095     32097     32099     32098     32100     32102     32101     32103
     32105     32104     32106     32108     32107     32109     32111     32110     32112
     32114     32113     32115     32117     32116     32118     32120     32119     32121
     32123     32122     32124     32126     32125     32127     32129     32128     32130
     32132     32131     32133     32135     32134     32136     32138     32137     32139
     32141     32140     32142     32144     32143     32145     32147     32146     32148
     32150     32149     32151     32153     32152     32154     32156     32155     32157
     32159     32158     32160     32162     32161     32163     32165     32164     32166
     32168     32167     32169     32171     32170     32172     32174     32173     32175
     32177     32176     32178     32180     32179     32181     32183     32182     32184
     32186     32185     32187     32189     32188     32190     32192     32191     32193
     32195     32194     32196     32198     32197     32199     32201     32200     32202
     32204     32203     32205     32207     32206     32208     32210     32209     32211
     32213     32212     32214     32216     32215     32217     32219     32218     32220
     32222     32221     32223     32225     32224     32226     32228     32227     32229
     32231     32230     32232     32234     32233     32235     32237     32236     32238
     32240     32239     32241     32243     32242     32244     32246     32245     32247
     32249     32248     32250     32252     32251     32253     32255     32254     32256
     32258     32257     32259     32261     32260     32262     32264     32263     32265
     32267     32266     32268     32270     32269     32271     32273     32272     32274
     32276     32275     32277     32279     32278     32280     32282     32281     32283
     32285     32284     32286     32288     32287     32289     32291     32290     32292
     32294     32293     32295     32297     32296     32298     32300     32299     32301
     32303     32302     32304     32306     32305     32307     32309     32308     32310
     32312     32311     32313     32315     32314     32316     32318     32317     32319
     32321     32320     32322     32324     32323     32325     32327     32326     32328
     32330     32329     32331     32333     32332     32334     32336     32335     32337
     32339     32338     32340     32342     32341     32343     32345     32344     32346
     32348     32347     32349     32351     32350     32352     32354     32353     32355
     32357     32356     32358     32360     32359     32361     32363     32362     32364
     32366     32365     32367     32369     32368     32370     32372     32371     32373
     32375     32374     32376     32378     32377     32379     32381     32380     32382
     32384     32383     32385     32387     32386     32388     32390     32389     32391
     32393     32392     32394     32396     32395     32397     32399     32398     32400
     32402     32401     32403     32405     32404     32406     32408     32407     32409
     32411     32410     32412     32414     32413     32415     32417     32416     32418
     32420     32419     32421     32423     32422     32424     32426     32425     32427
     32429     32428     32430     32432     32431     32433     32435     32434     32436
     32438     32437     32439     32441     32440     32442     32444     32443     32445
     32447     32446     32448     32450     32449     32451     32453     32452     32454
     32456     32455     32457     32459     32458     32460     32462     32461     32463
     32465     32464     32466     32468     32467     32469     32471     32470     32472
     32474     32473     32475     32477     32476     32478     32480     32479     32481
     32483     32482     32484     32486     32485     32487     32489     32488     32490
     32492     32491     32493     32495     32494     32496     32498     32497     32499
     32501     32500     32502     32504     32503     32505     32507     32506     32508
     32510     32509     32511     32513     32512     32514     32516     32515     32517
     32519     32518     32520     32522     32521     32523     32525     32524     32526
     32528     32527     32529     32531     32530     32532     32534     32533     32535
     32537     32536     32538     32540     32539     32541     32543     32542     32544
     32546     32545     32547     32549     32548     32550     32552     32551     32553
     32555     32554     32556     32558     32557     32559     32561     32560     32562
     32564     32563     32565     32567     32566     32568     32570     32569     32571
     32573     32572     32574     32576     32575     32577     32579     32578     32580
     32582     32581     32583     32585     32584     32586     32588     32587     32589
     32591     32590     32592     32594     32593     32595     32597     32596     32598
     32600     32599     32601     32603     32602     32604     32606     32605     32607
     32609     32608     32610     32612     32611     32613     32615     32614     32616
     32618     32617     32619     32621     32620     32622     32624     32623     32625
     32627     32626     32628     32630     32629     32631     32633     32632     32634
     32636     32635     32637     32639     32638     32640     32642     32641     32643
     32645     32644     32646     32648     32647     32649     32651     32650     32652
     32654     32653     32655     32657     32656     32658     32660     32659     32661
     32663     32662     32664     32666     32665     32667     32669     32668     32670
     32672     32671     32673     32675     32674     32676     32678     32677     32679
     32681     32680     32682     32684     32683     32685     32687     32686     32688
     32690     32689     32691     32693     32692     32694     32696     32695     32697
     32699     32698     32700     32702     32701     32703     32705     32704     32706
     32708     32707     32709     32711     32710     32712     32714     32713     32715
     32717     32716     32718     32720     32719     32721     32723     32722     32724
     32726     32725     32727     32729     32728     32730     32732     32731     32733
     32735     32734     32736     32738     32737     32739     32741     32740     32742
     32744     32743     32745     32747     32746     32748     32750     32749     32751
     32753     32752     32754     32756     32755     32757     32759     32758     32760
     32762     32761     32763     32765     32764     32766     32768     32767     32769
     32771     32770     32772     32774     32773     32775     32777     32776     32778
     32780     32779     32781     32783     32782     32784     32786     32785     32787
     32789     32788     32790     32792     32791     32793     32795     32794     32796
     32798     32797     32799     32801     32800     32802     32804     32803     32805
     32807     32806     32808     32810     32809     32811     32813     32812     32814
     32816     32815     32817     32819     32818     32820     32822     32821     32823
     32825     32824     32826     32828     32827     32829     32831     32830     32832
     32834     32833     32835     32837     32836     32838     32840     32839     32841
     32843     32842     32844     32846     32845     32847     32849     32848     32850
     32852     32851     32853     32855     32854     32856     32858     32857     32859
     32861     32860     32862     32864     32863     32865     32867     32866     32868
     32870     32869     32871     32873     32872     32874     32876     32875     32877
     32879     32878     32880     32882     32881     32883     32885     32884     32886
     32888     32887     32889     32891     32890     32892     32894     32893     32895
     32897     32896     32898     32900     32899     32901     32903     32902     32904
     32906     32905     32907     32909     32908     32910     32912     32911     32913
     32915     32914     32916     32918     32917     32919     32921     32920     32922
     32924     32923     32925     32927     32926     32928     32930     32929     32931
     32933     32932     32934     32936     32935     32937     32939     32938     32940
     32942     32941     32943     32945     32944     32946     32948     32947     32949
     32951     32950     32952     32954     32953     32955     32957     32956     32958
     32960     32959     32961     32963     32962     32964     32966     32965     32967
     32969     32968     32970     32972     32971     32973     32975     32974     32976
     32978     32977     32979     32981     32980     32982     32984     32983     32985
     32987     32986     32988     32990     32989     32991     32993     32992     32994
     32996     32995     32997     32999     32998     33000     33002     33001     33003
     33005     33004     33006     33008     33007     33009     33011     33010     33012
     33014     33013     33015     33017     33016     33018     33020     33019     33021
     33023     33022     33024     33026     33025     33027     33029     33028     33030
     33032     33031     33033     33035     33034     33036     33038     33037     33039
     33041     33040     33042     33044     33043     33045     33047     33046     33048
     33050     33049     33051     33053     33052     33054     33056     33055     33057
     33059     33058     33060     33062     33061     33063     33065     33064     33066
     33068     33067     33069     33071     33070     33072     33074     33073     33075
     33077     33076     33078     33080     33079     33081     33083     33082     33084
     33086     33085     33087     33089     33088     33090     33092     33091     33093
     33095     33094     33096     33098     33097     33099     33101     33100     33102
     33104     33103     33105     33107     33106     33108     33110     33109     33111
     33113     33112     33114     33116     33115     33117     33119     33118     33120
     33122     33121     33123     33125     33124     33126     33128     33127     33129
     33131     33130     33132     33134     33133     33135     33137     33136     33138
     33140     33139     33141     33143     33142     33144     33146     33145     33147
     33149     33148     33150     33152     33151     33153     33155     33154     33156
     33158     33157     33159     33161     33160     33162     33164     33163     33165
     33167     33166     33168     33170     33169     33171     33173     33172     33174
     33176     33175     33177     33179     33178     33180     33182     33181     33183
     33185     33184     33186     33188     33187     33189     33191     33190     33192
     33194     33193     33195     33197     33196     33198     33200     33199     33201
     33203     33202     33204     33206     33205     33207     33209     33208     33210
     33212     33211     33213     33215     33214     33216     33218     33217     33219
     33221     33220     33222     33224     33223     33225     33227     33226     33228
     33230     33229     33231     33233     33232     33234     33236     33235     33237
     33239     33238     33240     33242     33241     33243     33245     33244     33246
     33248     33247     33249     33251     33250     33252     33254     33253     33255
     33257     33256     33258     33260     33259     33261     33263     33262     33264
     33266     33265     33267     33269     33268     33270     33272     33271     33273
     33275     33274     33276     33278     33277     33279     33281     33280     33282
     33284     33283     33285     33287     33286     33288     33290     33289     33291
     33293     33292     33294     33296     33295     33297     33299     33298     33300
     33302     33301     33303     33305     33304     33306     33308     33307     33309
     33311     33310     33312     33314     33313     33315     33317     33316     33318
     33320     33319     33321     33323     33322     33324     33326     33325     33327
     33329     33328     33330     33332     33331     33333     33335     33334     33336
     33338     33337     33339     33341     33340     33342     33344     33343     33345
     33347     33346     33348     33350     33349     33351     33353     33352     33354
     33356     33355     33357     33359     33358     33360     33362     33361     33363
     33365     33364     33366     33368     33367     33369     33371     33370     33372
     33374     33373     33375     33377     33376     33378     33380     33379     33381
     33383     33382     33384     33386     33385     33387     33389     33388     33390
     33392     33391     33393     33395     33394     33396     33398     33397     33399
     33401     33400     33402     33404     33403     33405     33407     33406     33408
     33410     33409     33411     33413     33412     33414     33416     33415     33417
     33419     33418     33420     33422     33421     33423     33425     33424     33426
     33428     33427     33429     33431     33430     33432     33434     33433     33435
     33437     33436     33438     33440     33439     33441     33443     33442     33444
     33446     33445     33447     33449     33448     33450     33452     33451     33453
     33455     33454     33456     33458     33457     33459     33461     33460     33462
     33464     33463     33465     33467     33466     33468     33470     33469     33471
     33473     33472     33474     33476     33475     33477     33479     33478     33480
     33482     33481     33483     33485     33484     33486     33488     33487     33489
     33491     33490     33492     33494     33493     33495     33497     33496     33498
     33500     33499     33501     33503     33502     33504     33506     33505     33507
     33509     33508     33510     33512     33511     33513     33515     33514     33516
     33518     33517     33519     33521     33520     33522     33524     33523     33525
     33527     33526     33528     33530     33529     33531     33533     33532     33534
     33536     33535     33537     33539     33538     33540     33542     33541     33543
     33545     33544     33546     33548     33547     33549     33551     33550     33552
     33554     33553     33555     33557     33556     33558     33560     33559     33561
     33563     33562     33564     33566     33565     33567     33569     33568     33570
     33572     33571     33573     33575     33574     33576     33578     33577     33579
     33581     33580     33582     33584     33583     33585     33587     33586     33588
     33590     33589     33591     33593     33592     33594     33596     33595     33597
     33599     33598     33600     33602     33601     33603     33605     33604     33606
     33608     33607     33609     33611     33610     33612     33614     33613     33615
     33617     33616     33618     33620     33619     33621     33623     33622     33624
     33626     33625     33627     33629     33628     33630     33632     33631     33633
     33635     33634     33636     33638     33637     33639     33641     33640     33642
     33644     33643     33645     33647     33646     33648     33650     33649     33651
     33653     33652     33654     33656     33655     33657     33659     33658     33660
     33662     33661     33663     33665     33664     33666     33668     33667     33669
     33671     33670     33672     33674     33673     33675     33677     33676     33678
     33680     33679     33681     33683     33682     33684     33686     33685     33687
     33689     33688     33690     33692     33691     33693     33695     33694     33696
     33698     33697     33699     33701     33700     33702     33704     33703     33705
     33707     33706     33708     33710     33709     33711     33713     33712     33714
     33716     33715     33717     33719     33718     33720     33722     33721     33723
     33725     33724     33726     33728     33727     33729     33731     33730     33732
     33734     33733     33735     33737     33736     33738     33740     33739     33741
     33743     33742     33744     33746     33745     33747     33749     33748     33750
     33752     33751     33753     33755     33754     33756     33758     33757     33759
     33761     33760     33762     33764     33763     33765     33767     33766     33768
     33770     33769     33771     33773     33772     33774     33776     33775     33777
     33779     33778     33780     33782     33781     33783     33785     33784     33786
     33788     33787     33789     33791     33790     33792     33794     33793     33795
     33797     33796     33798     33800     33799     33801     33803     33802     33804
     33806     33805     33807     33809     33808     33810     33812     33811     33813
     33815     33814     33816     33818     33817     33819     33821     33820     33822
     33824     33823     33825     33827     33826     33828     33830     33829     33831
     33833     33832     33834     33836     33835     33837     33839     33838     33840
     33842     33841     33843     33845     33844     33846     33848     33847     33849
     33851     33850     33852     33854     33853     33855     33857     33856     33858
     33860     33859     33861     33863     33862     33864     33866     33865     33867
     33869     33868     33870     33872     33871     33873     33875     33874     33876
     33878     33877     33879     33881     33880     33882     33884     33883     33885
     33887     33886     33888     33890     33889     33891     33893     33892     33894
     33896     33895     33897     33899     33898     33900     33902     33901     33903
     33905     33904     33906     33908     33907     33909     33911     33910     33912
     33914     33913     33915     33917     33916     33918     33920     33919     33921
     33923     33922     33924     33926     33925     33927     33929     33928     33930
     33932     33931     33933     33935     33934     33936     33938     33937     33939
     33941     33940     33942     33944     33943     33945     33947     33946     33948
     33950     33949     33951     33953     33952     33954     33956     33955     33957
     33959     33958     33960     33962     33961     33963     33965     33964     33966
     33968     33967     33969     33971     33970     33972     33974     33973     33975
     33977     33976     33978     33980     33979     33981     33983     33982     33984
     33986     33985     33987     33989     33988     33990     33992     33991     33993
     33995     33994     33996     33998     33997     33999     34001     34000     34002
     34004     34003     34005     34007     34006     34008     34010     34009     34011
     34013     34012     34014     34016     34015     34017     34019     34018     34020
     34022     34021     34023     34025     34024     34026     34028     34027     34029
     34031     34030     34032     34034     34033     34035     34037     34036     34038
     34040     34039     34041     34043     34042     34044     34046     34045     34047
     34049     34048     34050     34052     34051     34053     34055     34054     34056
     34058     34057     34059     34061     34060     34062     34064     34063     34065
     34067     34066     34068     34070     34069     34071     34073     34072     34074
     34076     34075     34077     34079     34078     34080     34082     34081     34083
     34085     34084     34086     34088     34087     34089     34091     34090     34092
     34094     34093     34095     34097     34096     34098     34100     34099     34101
     34103     34102     34104     34106     34105     34107     34109     34108     34110
     34112     34111     34113     34115     34114     34116     34118     34117     34119
     34121     34120     34122     34124     34123     34125     34127     34126     34128
     34130     34129     34131     34133     34132     34134     34136     34135     34137
     34139     34138     34140     34142     34141     34143     34145     34144     34146
     34148     34147     34149     34151     34150     34152     34154     34153     34155
     34157     34156     34158     34160     34159     34161     34163     34162     34164
     34166     34165     34167     34169     34168     34170     34172     34171     34173
     34175     34174     34176     34178     34177     34179     34181     34180     34182
     34184     34183     34185     34187     34186     34188     34190     34189     34191
     34193     34192     34194     34196     34195     34197     34199     34198     34200
     34202     34201     34203     34205     34204     34206     34208     34207     34209
     34211     34210     34212     34214     34213     34215     34217     34216     34218
     34220     34219     34221     34223     34222     34224     34226     34225     34227
     34229     34228     34230     34232     34231     34233     34235     34234     34236
     34238     34237     34239     34241     34240     34242     34244     34243     34245
     34247     34246     34248     34250     34249     34251     34253     34252     34254
     34256     34255     34257     34259     34258     34260     34262     34261     34263
     34265     34264     34266     34268     34267     34269     34271     34270     34272
     34274     34273     34275     34277     34276     34278     34280     34279     34281
     34283     34282     34284     34286     34285     34287     34289     34288     34290
     34292     34291     34293     34295     34294     34296     34298     34297     34299
     34301     34300     34302     34304     34303     34305     34307     34306     34308
     34310     34309     34311     34313     34312     34314     34316     34315     34317
     34319     34318     34320     34322     34321     34323     34325     34324     34326
     34328     34327     34329     34331     34330     34332     34334     34333     34335
     34337     34336     34338     34340     34339     34341     34343     34342     34344
     34346     34345     34347     34349     34348     34350     34352     34351     34353
     34355     34354     34356     34358     34357     34359     34361     34360     34362
     34364     34363     34365     34367     34366     34368     34370     34369     34371
     34373     34372     34374     34376     34375     34377     34379     34378     34380
     34382     34381     34383     34385     34384     34386     34388     34387     34389
     34391     34390     34392     34394     34393     34395     34397     34396     34398
     34400     34399     34401     34403     34402     34404     34406     34405     34407
     34409     34408     34410     34412     34411     34413     34415     34414     34416
     34418     34417     34419     34421     34420     34422     34424     34423     34425
     34427     34426     34428     34430     34429     34431     34433     34432     34434
     34436     34435     34437     34439     34438     34440     34442     34441     34443
     34445     34444     34446     34448     34447     34449     34451     34450     34452
     34454     34453     34455     34457     34456     34458     34460     34459     34461
     34463     34462     34464     34466     34465     34467     34469     34468     34470
     34472     34471     34473     34475     34474     34476     34478     34477     34479
     34481     34480     34482     34484     34483     34485     34487     34486     34488
     34490     34489     34491     34493     34492     34494     34496     34495     34497
     34499     34498     34500     34502     34501     34503     34505     34504     34506
     34508     34507     34509     34511     34510     34512     34514     34513     34515
     34517     34516     34518     34520     34519     34521     34523     34522     34524
     34526     34525     34527     34529     34528     34530     34532     34531     34533
     34535     34534     34536     34538     34537     34539     34541     34540     34542
     34544     34543     34545     34547     34546     34548     34550     34549     34551
     34553     34552     34554     34556     34555     34557     34559     34558     34560
     34562     34561     34563     34565     34564     34566     34568     34567     34569
     34571     34570     34572     34574     34573     34575     34577     34576     34578
     34580     34579     34581     34583     34582     34584     34586     34585     34587
     34589     34588     34590     34592     34591     34593     34595     34594     34596
     34598     34597     34599     34601     34600     34602     34604     34603     34605
     34607     34606     34608     34610     34609     34611     34613     34612     34614
     34616     34615     34617     34619     34618     34620     34622     34621     34623
     34625     34624     34626     34628     34627     34629     34631     34630     34632
     34634     34633     34635     34637     34636     34638     34640     34639     34641
     34643     34642     34644     34646     34645     34647     34649     34648     34650
     34652     34651     34653     34655     34654     34656     34658     34657     34659
     34661     34660     34662     34664     34663     34665     34667     34666     34668
     34670     34669     34671     34673     34672     34674     34676     34675     34677
     34679     34678     34680     34682     34681     34683     34685     34684     34686
     34688     34687     34689     34691     34690     34692     34694     34693     34695
     34697     34696     34698     34700     34699     34701     34703     34702     34704
     34706     34705     34707     34709     34708     34710     34712     34711     34713
     34715     34714     34716     34718     34717     34719     34721     34720     34722
     34724     34723     34725     34727     34726     34728     34730     34729     34731
     34733     34732     34734     34736     34735     34737     34739     34738     34740
     34742     34741     34743     34745     34744     34746     34748     34747     34749
     34751     34750     34752     34754     34753     34755     34757     34756     34758
     34760     34759     34761     34763     34762     34764     34766     34765     34767
     34769     34768     34770     34772     34771     34773     34775     34774     34776
     34778     34777     34779     34781     34780     34782     34784     34783     34785
     34787     34786     34788     34790     34789     34791     34793     34792     34794
     34796     34795     34797     34799     34798     34800     34802     34801     34803
     34805     34804     34806     34808     34807     34809     34811     34810     34812
     34814     34813     34815     34817     34816     34818     34820     34819     34821
     34823     34822     34824     34826     34825     34827     34829     34828     34830
     34832     34831     34833     34835     34834     34836     34838     34837     34839
     34841     34840     34842     34844     34843     34845     34847     34846     34848
     34850     34849     34851     34853     34852     34854     34856     34855     34857
     34859     34858     34860     34862     34861     34863     34865     34864     34866
     34868     34867     34869     34871     34870     34872     34874     34873     34875
     34877     34876     34878     34880     34879     34881     34883     34882     34884
     34886     34885     34887     34889     34888     34890     34892     34891     34893
     34895     34894     34896     34898     34897     34899     34901     34900     34902
     34904     34903     34905     34907     34906     34908     34910     34909     34911
     34913     34912     34914     34916     34915     34917     34919     34918     34920
     34922     34921     34923     34925     34924     34926     34928     34927     34929
     34931     34930     34932     34934     34933     34935     34937     34936     34938
     34940     34939     34941     34943     34942     34944     34946     34945     34947
     34949     34948     34950     34952     34951     34953     34955     34954     34956
     34958     34957     34959     34961     34960     34962     34964     34963     34965
     34967     34966     34968     34970     34969     34971     34973     34972     34974
     34976     34975     34977     34979     34978     34980     34982     34981     34983
     34985     34984     34986     34988     34987     34989     34991     34990     34992
     34994     34993     34995     34997     34996     34998     35000     34999     35001
     35003     35002     35004     35006     35005     35007     35009     35008     35010
     35012     35011     35013     35015     35014     35016     35018     35017     35019
     35021     35020     35022     35024     35023     35025     35027     35026     35028
     35030     35029     35031     35033     35032     35034     35036     35035     35037
     35039     35038     35040     35042     35041     35043     35045     35044     35046
     35048     35047     35049     35051     35050     35052     35054     35053     35055
     35057     35056     35058     35060     35059     35061     35063     35062     35064
     35066     35065     35067     35069     35068     35070     35072     35071     35073
     35075     35074     35076     35078     35077     35079     35081     35080     35082
     35084     35083     35085     35087     35086     35088     35090     35089     35091
     35093     35092     35094     35096     35095     35097     35099     35098     35100
     35102     35101     35103     35105     35104     35106     35108     35107     35109
     35111     35110     35112     35114     35113     35115     35117     35116     35118
     35120     35119     35121     35123     35122     35124     35126     35125     35127
     35129     35128     35130     35132     35131     35133     35135     35134     35136
     35138     35137     35139     35141     35140     35142     35144     35143     35145
     35147     35146     35148     35150     35149     35151     35153     35152     35154
     35156     35155     35157     35159     35158     35160     35162     35161     35163
     35165     35164     35166     35168     35167     35169     35171     35170     35172
     35174     35173     35175     35177     35176     35178     35180     35179     35181
     35183     35182     35184     35186     35185     35187     35189     35188     35190
     35192     35191     35193     35195     35194     35196     35198     35197     35199
     35201     35200     35202     35204     35203     35205     35207     35206     35208
     35210     35209     35211     35213     35212     35214     35216     35215     35217
     35219     35218     35220     35222     35221     35223     35225     35224     35226
     35228     35227     35229     35231     35230     35232     35234     35233     35235
     35237     35236     35238     35240     35239     35241     35243     35242     35244
     35246     35245     35247     35249     35248     35250     35252     35251     35253
     35255     35254     35256     35258     35257     35259     35261     35260     35262
     35264     35263     35265     35267     35266     35268     35270     35269     35271
     35273     35272     35274     35276     35275     35277     35279     35278     35280
     35282     35281     35283     35285     35284     35286     35288     35287     35289
     35291     35290     35292     35294     35293     35295     35297     35296     35298
     35300     35299     35301     35303     35302     35304     35306     35305     35307
     35309     35308     35310     35312     35311     35313     35315     35314     35316
     35318     35317     35319     35321     35320     35322     35324     35323     35325
     35327     35326     35328     35330     35329     35331     35333     35332     35334
     35336     35335     35337     35339     35338     35340     35342     35341     35343
     35345     35344     35346     35348     35347     35349     35351     35350     35352
     35354     35353     35355     35357     35356     35358     35360     35359     35361
     35363     35362     35364     35366     35365     35367     35369     35368     35370
     35372     35371     35373     35375     35374     35376     35378     35377     35379
     35381     35380     35382     35384     35383     35385     35387     35386     35388
     35390     35389     35391     35393     35392     35394     35396     35395     35397
     35399     35398     35400     35402     35401     35403     35405     35404     35406
     35408     35407     35409     35411     35410     35412     35414     35413     35415
     35417     35416     35418     35420     35419     35421     35423     35422     35424
     35426     35425     35427     35429     35428     35430     35432     35431     35433
     35435     35434     35436     35438     35437     35439     35441     35440     35442
     35444     35443     35445     35447     35446     35448     35450     35449     35451
     35453     35452     35454     35456     35455     35457     35459     35458     35460
     35462     35461     35463     35465     35464     35466     35468     35467     35469
     35471     35470     35472     35474     35473     35475     35477     35476     35478
     35480     35479     35481     35483     35482     35484     35486     35485     35487
     35489     35488     35490     35492     35491     35493     35495     35494     35496
     35498     35497     35499     35501     35500     35502     35504     35503     35505
     35507     35506     35508     35510     35509     35511     35513     35512     35514
     35516     35515     35517     35519     35518     35520     35522     35521     35523
     35525     35524     35526     35528     35527     35529     35531     35530     35532
     35534     35533     35535     35537     35536     35538     35540     35539     35541
     35543     35542     35544     35546     35545     35547     35549     35548     35550
     35552     35551     35553     35555     35554     35556     35558     35557     35559
     35561     35560     35562     35564     35563     35565     35567     35566     35568
     35570     35569     35571     35573     35572     35574     35576     35575     35577
     35579     35578     35580     35582     35581     35583     35585     35584     35586
     35588     35587     35589     35591     35590     35592     35594     35593     35595
     35597     35596     35598     35600     35599     35601     35603     35602     35604
     35606     35605     35607     35609     35608     35610     35612     35611     35613
     35615     35614     35616     35618     35617     35619     35621     35620     35622
     35624     35623     35625     35627     35626     35628     35630     35629     35631
     35633     35632     35634     35636     35635     35637     35639     35638     35640
     35642     35641     35643     35645     35644     35646     35648     35647     35649
     35651     35650     35652     35654     35653     35655     35657     35656     35658
     35660     35659     35661     35663     35662     35664     35666     35665     35667
     35669     35668     35670     35672     35671     35673     35675     35674     35676
     35678     35677     35679     35681     35680     35682     35684     35683     35685
     35687     35686     35688     35690     35689     35691     35693     35692     35694
     35696     35695     35697     35699     35698     35700     35702     35701     35703
     35705     35704     35706     35708     35707     35709     35711     35710     35712
     35714     35713     35715     35717     35716     35718     35720     35719     35721
     35723     35722     35724     35726     35725     35727     35729     35728     35730
     35732     35731     35733     35735     35734     35736     35738     35737     35739
     35741     35740     35742     35744     35743     35745     35747     35746     35748
     35750     35749     35751     35753     35752     35754     35756     35755     35757
     35759     35758     35760     35762     35761     35763     35765     35764     35766
     35768     35767     35769     35771     35770     35772     35774     35773     35775
     35777     35776     35778     35780     35779     35781     35783     35782     35784
     35786     35785     35787     35789     35788     35790     35792     35791     35793
     35795     35794     35796     35798     35797     35799     35801     35800     35802
     35804     35803     35805     35807     35806     35808     35810     35809     35811
     35813     35812     35814     35816     35815     35817     35819     35818     35820
     35822     35821     35823     35825     35824     35826     35828     35827     35829
     35831     35830     35832     35834     35833     35835     35837     35836     35838
     35840     35839     35841     35843     35842     35844     35846     35845     35847
     35849     35848     35850     35852     35851     35853     35855     35854     35856
     35858     35857     35859     35861     35860     35862     35864     35863     35865
     35867     35866     35868     35870     35869     35871     35873     35872     35874
     35876     35875     35877     35879     35878     35880     35882     35881     35883
     35885     35884     35886     35888     35887     35889     35891     35890     35892
     35894     35893     35895     35897     35896     35898     35900     35899     35901
     35903     35902     35904     35906     35905     35907     35909     35908     35910
     35912     35911     35913     35915     35914     35916     35918     35917     35919
     35921     35920     35922     35924     35923     35925     35927     35926     35928
     35930     35929     35931     35933     35932     35934     35936     35935     35937
     35939     35938     35940     35942     35941     35943     35945     35944     35946
     35948     35947     35949     35951     35950     35952     35954     35953     35955
     35957     35956     35958     35960     35959     35961     35963     35962     35964
     35966     35965     35967     35969     35968     35970     35972     35971     35973
     35975     35974     35976     35978     35977     35979     35981     35980     35982
     35984     35983     35985     35987     35986     35988     35990     35989     35991
     35993     35992     35994     35996     35995     35997     35999     35998     36000
     36002     36001     36003     36005     36004     36006     36008     36007     36009
     36011     36010     36012     36014     36013     36015     36017     36016     36018
     36020     36019     36021     36023     36022     36024     36026     36025     36027
     36029     36028     36030     36032     36031     36033     36035     36034     36036
     36038     36037     36039     36041     36040     36042     36044     36043     36045
     36047     36046     36048     36050     36049     36051     36053     36052     36054
     36056     36055     36057     36059     36058     36060     36062     36061     36063
     36065     36064     36066     36068     36067     36069     36071     36070     36072
     36074     36073     36075     36077     36076     36078     36080     36079     36081
     36083     36082     36084     36086     36085     36087     36089     36088     36090
     36092     36091     36093     36095     36094     36096     36098     36097     36099
     36101     36100     36102     36104     36103     36105     36107     36106     36108
     36110     36109     36111     36113     36112     36114     36116     36115     36117
     36119     36118     36120     36122     36121     36123     36125     36124     36126
     36128     36127     36129     36131     36130     36132     36134     36133     36135
     36137     36136     36138     36140     36139     36141     36143     36142     36144
     36146     36145     36147     36149     36148     36150     36152     36151     36153
     36155     36154     36156     36158     36157     36159     36161     36160     36162
     36164     36163     36165     36167     36166     36168     36170     36169     36171
     36173     36172     36174     36176     36175     36177     36179     36178     36180
     36182     36181     36183     36185     36184     36186     36188     36187     36189
     36191     36190     36192     36194     36193     36195     36197     36196     36198
     36200     36199     36201     36203     36202     36204     36206     36205     36207
     36209     36208     36210     36212     36211     36213     36215     36214     36216
     36218     36217     36219     36221     36220     36222     36224     36223     36225
     36227     36226     36228     36230     36229     36231     36233     36232     36234
     36236     36235     36237     36239     36238     36240     36242     36241     36243
     36245     36244     36246     36248     36247     36249     36251     36250     36252
     36254     36253     36255     36257     36256     36258     36260     36259     36261
     36263     36262     36264     36266     36265     36267     36269     36268     36270
     36272     36271     36273     36275     36274     36276     36278     36277     36279
     36281     36280     36282     36284     36283     36285     36287     36286     36288
     36290     36289     36291     36293     36292     36294     36296     36295     36297
     36299     36298     36300     36302     36301     36303     36305     36304     36306
     36308     36307     36309     36311     36310     36312     36314     36313     36315
     36317     36316     36318     36320     36319     36321     36323     36322     36324
     36326     36325     36327     36329     36328     36330     36332     36331     36333
     36335     36334     36336     36338     36337     36339     36341     36340     36342
     36344     36343     36345     36347     36346     36348     36350     36349     36351
     36353     36352     36354     36356     36355     36357     36359     36358     36360
     36362     36361     36363     36365     36364     36366     36368     36367     36369
     36371     36370     36372     36374     36373     36375     36377     36376     36378
     36380     36379     36381     36383     36382     36384     36386     36385     36387
     36389     36388     36390     36392     36391     36393     36395     36394     36396
     36398     36397     36399     36401     36400     36402     36404     36403     36405
     36407     36406     36408     36410     36409     36411     36413     36412     36414
     36416     36415     36417     36419     36418     36420     36422     36421     36423
     36425     36424     36426     36428     36427     36429     36431     36430     36432
     36434     36433     36435     36437     36436     36438     36440     36439     36441
     36443     36442     36444     36446     36445     36447     36449     36448     36450
     36452     36451     36453     36455     36454     36456     36458     36457     36459
     36461     36460     36462     36464     36463     36465     36467     36466     36468
     36470     36469     36471     36473     36472     36474     36476     36475     36477
     36479     36478     36480     36482     36481     36483     36485     36484     36486
     36488     36487     36489     36491     36490     36492     36494     36493     36495
     36497     36496     36498     36500     36499     36501     36503     36502     36504
     36506     36505     36507     36509     36508     36510     36512     36511     36513
     36515     36514     36516     36518     36517     36519     36521     36520     36522
     36524     36523     36525     36527     36526     36528     36530     36529     36531
     36533     36532     36534     36536     36535     36537     36539     36538     36540
     36542     36541     36543     36545     36544     36546     36548     36547     36549
     36551     36550     36552     36554     36553     36555     36557     36556     36558
     36560     36559     36561     36563     36562     36564     36566     36565     36567
     36569     36568     36570     36572     36571     36573     36575     36574     36576
     36578     36577     36579     36581     36580     36582     36584     36583     36585
     36587     36586     36588     36590     36589     36591     36593     36592     36594
     36596     36595     36597     36599     36598     36600     36602     36601     36603
     36605     36604     36606     36608     36607     36609     36611     36610     36612
     36614     36613     36615     36617     36616     36618     36620     36619     36621
     36623     36622     36624     36626     36625     36627     36629     36628     36630
     36632     36631     36633     36635     36634     36636     36638     36637     36639
     36641     36640     36642     36644     36643     36645     36647     36646     36648
     36650     36649     36651     36653     36652     36654     36656     36655     36657
     36659     36658     36660     36662     36661     36663     36665     36664     36666
     36668     36667     36669     36671     36670     36672     36674     36673     36675
     36677     36676     36678     36680     36679     36681     36683     36682     36684
     36686     36685     36687     36689     36688     36690     36692     36691     36693
     36695     36694     36696     36698     36697     36699     36701     36700     36702
     36704     36703     36705     36707     36706     36708     36710     36709     36711
     36713     36712     36714     36716     36715     36717     36719     36718     36720
     36722     36721     36723     36725     36724     36726     36728     36727     36729
     36731     36730     36732     36734     36733     36735     36737     36736     36738
     36740     36739     36741     36743     36742     36744     36746     36745     36747
     36749     36748     36750     36752     36751     36753     36755     36754     36756
     36758     36757     36759     36761     36760     36762     36764     36763     36765
     36767     36766     36768     36770     36769     36771     36773     36772     36774
     36776     36775     36777     36779     36778     36780     36782     36781     36783
     36785     36784     36786     36788     36787     36789     36791     36790     36792
     36794     36793     36795     36797     36796     36798     36800     36799     36801
     36803     36802     36804     36806     36805     36807     36809     36808     36810
     36812     36811     36813     36815     36814     36816     36818     36817     36819
     36821     36820     36822     36824     36823     36825     36827     36826     36828
     36830     36829     36831     36833     36832     36834     36836     36835     36837
     36839     36838     36840     36842     36841     36843     36845     36844     36846
     36848     36847     36849     36851     36850     36852     36854     36853     36855
     36857     36856     36858     36860     36859     36861     36863     36862     36864
     36866     36865     36867     36869     36868     36870     36872     36871     36873
     36875     36874     36876     36878     36877     36879     36881     36880     36882
     36884     36883     36885     36887     36886     36888     36890     36889     36891
     36893     36892     36894     36896     36895     36897     36899     36898     36900
     36902     36901     36903     36905     36904     36906     36908     36907     36909
     36911     36910     36912     36914     36913     36915     36917     36916     36918
     36920     36919     36921     36923     36922     36924     36926     36925     36927
     36929     36928     36930     36932     36931     36933     36935     36934     36936
     36938     36937     36939     36941     36940     36942     36944     36943     36945
     36947     36946     36948     36950     36949     36951     36953     36952     36954
     36956     36955     36957     36959     36958     36960     36962     36961     36963
     36965     36964     36966     36968     36967     36969     36971     36970     36972
     36974     36973     36975     36977     36976     36978     36980     36979     36981
     36983     36982     36984     36986     36985     36987     36989     36988     36990
     36992     36991     36993     36995     36994     36996     36998     36997     36999
     37001     37000     37002     37004     37003     37005     37007     37006     37008
     37010     37009     37011     37013     37012     37014     37016     37015     37017
     37019     37018     37020     37022     37021     37023     37025     37024     37026
     37028     37027     37029     37031     37030     37032     37034     37033     37035
     37037     37036     37038     37040     37039     37041     37043     37042     37044
     37046     37045     37047     37049     37048     37050     37052     37051     37053
     37055     37054     37056     37058     37057     37059     37061     37060     37062
     37064     37063     37065     37067     37066     37068     37070     37069     37071
     37073     37072     37074     37076     37075     37077     37079     37078     37080
     37082     37081     37083     37085     37084     37086     37088     37087     37089
     37091     37090     37092     37094     37093     37095     37097     37096     37098
     37100     37099     37101     37103     37102     37104     37106     37105     37107
     37109     37108     37110     37112     37111     37113     37115     37114     37116
     37118     37117     37119     37121     37120     37122     37124     37123     37125
     37127     37126     37128     37130     37129     37131     37133     37132     37134
     37136     37135     37137     37139     37138     37140     37142     37141     37143
     37145     37144     37146     37148     37147     37149     37151     37150     37152
     37154     37153     37155     37157     37156     37158     37160     37159     37161
     37163     37162     37164     37166     37165     37167     37169     37168     37170
     37172     37171     37173     37175     37174     37176     37178     37177     37179
     37181     37180     37182     37184     37183     37185     37187     37186     37188
     37190     37189     37191     37193     37192     37194     37196     37195     37197
     37199     37198     37200     37202     37201     37203     37205     37204     37206
     37208     37207     37209     37211     37210     37212     37214     37213     37215
     37217     37216     37218     37220     37219     37221     37223     37222     37224
     37226     37225     37227     37229     37228     37230     37232     37231     37233
     37235     37234     37236     37238     37237     37239     37241     37240     37242
     37244     37243     37245     37247     37246     37248     37250     37249     37251
     37253     37252     37254     37256     37255     37257     37259     37258     37260
     37262     37261     37263     37265     37264     37266     37268     37267     37269
     37271     37270     37272     37274     37273     37275     37277     37276     37278
     37280     37279     37281     37283     37282     37284     37286     37285     37287
     37289     37288     37290     37292     37291     37293     37295     37294     37296
     37298     37297     37299     37301     37300     37302     37304     37303     37305
     37307     37306     37308     37310     37309     37311     37313     37312     37314
     37316     37315     37317     37319     37318     37320     37322     37321     37323
     37325     37324     37326     37328     37327     37329     37331     37330     37332
     37334     37333     37335     37337     37336     37338     37340     37339     37341
     37343     37342     37344     37346     37345     37347     37349     37348     37350
     37352     37351     37353     37355     37354     37356     37358     37357     37359
     37361     37360     37362     37364     37363     37365     37367     37366     37368
     37370     37369     37371     37373     37372     37374     37376     37375     37377
     37379     37378     37380     37382     37381     37383     37385     37384     37386
     37388     37387     37389     37391     37390     37392     37394     37393     37395
     37397     37396     37398     37400     37399     37401     37403     37402     37404
     37406     37405     37407     37409     37408     37410     37412     37411     37413
     37415     37414     37416     37418     37417     37419     37421     37420     37422
     37424     37423     37425     37427     37426     37428     37430     37429     37431
     37433     37432     37434     37436     37435     37437     37439     37438     37440
     37442     37441     37443     37445     37444     37446     37448     37447     37449
     37451     37450     37452     37454     37453     37455     37457     37456     37458
     37460     37459     37461     37463     37462     37464     37466     37465     37467
     37469     37468     37470     37472     37471     37473     37475     37474     37476
     37478     37477     37479     37481     37480     37482     37484     37483     37485
     37487     37486     37488     37490     37489     37491     37493     37492     37494
     37496     37495     37497     37499     37498     37500     37502     37501     37503
     37505     37504     37506     37508     37507     37509     37511     37510     37512
     37514     37513     37515     37517     37516     37518     37520     37519     37521
     37523     37522     37524     37526     37525     37527     37529     37528     37530
     37532     37531     37533     37535     37534     37536     37538     37537     37539
     37541     37540     37542     37544     37543     37545     37547     37546     37548
     37550     37549     37551     37553     37552     37554     37556     37555     37557
     37559     37558     37560     37562     37561     37563     37565     37564     37566
     37568     37567     37569     37571     37570     37572     37574     37573     37575
     37577     37576     37578     37580     37579     37581     37583     37582     37584
     37586     37585     37587     37589     37588     37590     37592     37591     37593
     37595     37594     37596     37598     37597     37599     37601     37600     37602
     37604     37603     37605     37607     37606     37608     37610     37609     37611
     37613     37612     37614     37616     37615     37617     37619     37618     37620
     37622     37621     37623     37625     37624     37626     37628     37627     37629
     37631     37630     37632     37634     37633     37635     37637     37636     37638
     37640     37639     37641     37643     37642     37644     37646     37645     37647
     37649     37648     37650     37652     37651     37653     37655     37654     37656
     37658     37657     37659     37661     37660     37662     37664     37663     37665
     37667     37666     37668     37670     37669     37671     37673     37672     37674
     37676     37675     37677     37679     37678     37680     37682     37681     37683
     37685     37684     37686     37688     37687     37689     37691     37690     37692
     37694     37693     37695     37697     37696     37698     37700     37699     37701
     37703     37702     37704     37706     37705     37707     37709     37708     37710
     37712     37711     37713     37715     37714     37716     37718     37717     37719
     37721     37720     37722     37724     37723     37725     37727     37726     37728
     37730     37729     37731     37733     37732     37734     37736     37735     37737
     37739     37738     37740     37742     37741     37743     37745     37744     37746
     37748     37747     37749     37751     37750     37752     37754     37753     37755
     37757     37756     37758     37760     37759     37761     37763     37762     37764
     37766     37765     37767     37769     37768     37770     37772     37771     37773
     37775     37774     37776     37778     37777     37779     37781     37780     37782
     37784     37783     37785     37787     37786     37788     37790     37789     37791
     37793     37792     37794     37796     37795     37797     37799     37798     37800
     37802     37801     37803     37805     37804     37806     37808     37807     37809
     37811     37810     37812     37814     37813     37815     37817     37816     37818
     37820     37819     37821     37823     37822     37824     37826     37825     37827
     37829     37828     37830     37832     37831     37833     37835     37834     37836
     37838     37837     37839     37841     37840     37842     37844     37843     37845
     37847     37846     37848     37850     37849     37851     37853     37852     37854
     37856     37855     37857     37859     37858     37860     37862     37861     37863
     37865     37864     37866     37868     37867     37869     37871     37870     37872
     37874     37873     37875     37877     37876     37878     37880     37879     37881
     37883     37882     37884     37886     37885     37887     37889     37888     37890
     37892     37891     37893     37895     37894     37896     37898     37897     37899
     37901     37900     37902     37904     37903     37905     37907     37906     37908
     37910     37909     37911     37913     37912     37914     37916     37915     37917
     37919     37918     37920     37922     37921     37923     37925     37924     37926
     37928     37927     37929     37931     37930     37932     37934     37933     37935
     37937     37936     37938     37940     37939     37941     37943     37942     37944
     37946     37945     37947     37949     37948     37950     37952     37951     37953
     37955     37954     37956     37958     37957     37959     37961     37960     37962
     37964     37963     37965     37967     37966     37968     37970     37969     37971
     37973     37972     37974     37976     37975     37977     37979     37978     37980
     37982     37981     37983     37985     37984     37986     37988     37987     37989
     37991     37990     37992     37994     37993     37995     37997     37996     37998
     38000     37999     38001     38003     38002     38004     38006     38005     38007
     38009     38008     38010     38012     38011     38013     38015     38014     38016
     38018     38017     38019     38021     38020     38022     38024     38023     38025
     38027     38026     38028     38030     38029     38031     38033     38032     38034
     38036     38035     38037     38039     38038     38040     38042     38041     38043
     38045     38044     38046     38048     38047     38049     38051     38050     38052
     38054     38053     38055     38057     38056     38058     38060     38059     38061
     38063     38062     38064     38066     38065     38067     38069     38068     38070
     38072     38071     38073     38075     38074     38076     38078     38077     38079
     38081     38080     38082     38084     38083     38085     38087     38086     38088
     38090     38089     38091     38093     38092     38094     38096     38095     38097
     38099     38098     38100     38102     38101     38103     38105     38104     38106
     38108     38107     38109     38111     38110     38112     38114     38113     38115
     38117     38116     38118     38120     38119     38121     38123     38122     38124
     38126     38125     38127     38129     38128     38130     38132     38131     38133
     38135     38134     38136     38138     38137     38139     38141     38140     38142
     38144     38143     38145     38147     38146     38148     38150     38149     38151
     38153     38152     38154     38156     38155     38157     38159     38158     38160
     38162     38161     38163     38165     38164     38166     38168     38167     38169
     38171     38170     38172     38174     38173     38175     38177     38176     38178
     38180     38179     38181     38183     38182     38184     38186     38185     38187
     38189     38188     38190     38192     38191     38193     38195     38194     38196
     38198     38197     38199     38201     38200     38202     38204     38203     38205
     38207     38206     38208     38210     38209     38211     38213     38212     38214
     38216     38215     38217     38219     38218     38220     38222     38221     38223
     38225     38224     38226     38228     38227     38229     38231     38230     38232
     38234     38233     38235     38237     38236     38238     38240     38239     38241
     38243     38242     38244     38246     38245     38247     38249     38248     38250
     38252     38251     38253     38255     38254     38256     38258     38257     38259
     38261     38260     38262     38264     38263     38265     38267     38266     38268
     38270     38269     38271     38273     38272     38274     38276     38275     38277
     38279     38278     38280     38282     38281     38283     38285     38284     38286
     38288     38287     38289     38291     38290     38292     38294     38293     38295
     38297     38296     38298     38300     38299     38301     38303     38302     38304
     38306     38305     38307     38309     38308     38310     38312     38311     38313
     38315     38314     38316     38318     38317     38319     38321     38320     38322
     38324     38323     38325     38327     38326     38328     38330     38329     38331
     38333     38332     38334     38336     38335     38337     38339     38338     38340
     38342     38341     38343     38345     38344     38346     38348     38347     38349
     38351     38350     38352     38354     38353     38355     38357     38356     38358
     38360     38359     38361     38363     38362     38364     38366     38365     38367
     38369     38368     38370     38372     38371     38373     38375     38374     38376
     38378     38377     38379     38381     38380     38382     38384     38383     38385
     38387     38386     38388     38390     38389     38391     38393     38392     38394
     38396     38395     38397     38399     38398     38400     38402     38401     38403
     38405     38404     38406     38408     38407     38409     38411     38410     38412
     38414     38413     38415     38417     38416     38418     38420     38419     38421
     38423     38422     38424     38426     38425     38427     38429     38428     38430
     38432     38431     38433     38435     38434     38436     38438     38437     38439
     38441     38440     38442     38444     38443     38445     38447     38446     38448
     38450     38449     38451     38453     38452     38454     38456     38455     38457
     38459     38458     38460     38462     38461     38463     38465     38464     38466
     38468     38467     38469     38471     38470     38472     38474     38473     38475
     38477     38476     38478     38480     38479     38481     38483     38482     38484
     38486     38485     38487     38489     38488     38490     38492     38491     38493
     38495     38494     38496     38498     38497     38499     38501     38500     38502
     38504     38503     38505     38507     38506     38508     38510     38509     38511
     38513     38512     38514     38516     38515     38517     38519     38518     38520
     38522     38521     38523     38525     38524     38526     38528     38527     38529
     38531     38530     38532     38534     38533     38535     38537     38536     38538
     38540     38539     38541     38543     38542     38544     38546     38545     38547
     38549     38548     38550     38552     38551     38553     38555     38554     38556
     38558     38557     38559     38561     38560     38562     38564     38563     38565
     38567     38566     38568     38570     38569     38571     38573     38572     38574
     38576     38575     38577     38579     38578     38580     38582     38581     38583
     38585     38584     38586     38588     38587     38589     38591     38590     38592
     38594     38593     38595     38597     38596     38598     38600     38599     38601
     38603     38602     38604     38606     38605     38607     38609     38608     38610
     38612     38611     38613     38615     38614     38616     38618     38617     38619
     38621     38620     38622     38624     38623     38625     38627     38626     38628
     38630     38629     38631     38633     38632     38634     38636     38635     38637
     38639     38638     38640     38642     38641     38643     38645     38644     38646
     38648     38647     38649     38651     38650     38652     38654     38653     38655
     38657     38656     38658     38660     38659     38661     38663     38662     38664
     38666     38665     38667     38669     38668     38670     38672     38671     38673
     38675     38674     38676     38678     38677     38679     38681     38680     38682
     38684     38683     38685     38687     38686     38688     38690     38689     38691
     38693     38692     38694     38696     38695     38697     38699     38698     38700
     38702     38701     38703     38705     38704     38706     38708     38707     38709
     38711     38710     38712     38714     38713     38715     38717     38716     38718
     38720     38719     38721     38723     38722     38724     38726     38725     38727
     38729     38728     38730     38732     38731     38733     38735     38734     38736
     38738     38737     38739     38741     38740     38742     38744     38743     38745
     38747     38746     38748     38750     38749     38751     38753     38752     38754
     38756     38755     38757     38759     38758     38760     38762     38761     38763
     38765     38764     38766     38768     38767     38769     38771     38770     38772
     38774     38773     38775     38777     38776     38778     38780     38779     38781
     38783     38782     38784     38786     38785     38787     38789     38788     38790
     38792     38791     38793     38795     38794     38796     38798     38797     38799
     38801     38800     38802     38804     38803     38805     38807     38806     38808
     38810     38809     38811     38813     38812     38814     38816     38815     38817
     38819     38818     38820     38822     38821     38823     38825     38824     38826
     38828     38827     38829     38831     38830     38832     38834     38833     38835
     38837     38836     38838     38840     38839     38841     38843     38842     38844
     38846     38845     38847     38849     38848     38850     38852     38851     38853
     38855     38854     38856     38858     38857     38859     38861     38860     38862
     38864     38863     38865     38867     38866     38868     38870     38869     38871
     38873     38872     38874     38876     38875     38877     38879     38878     38880
     38882     38881     38883     38885     38884     38886     38888     38887     38889
     38891     38890     38892     38894     38893     38895     38897     38896     38898
     38900     38899     38901     38903     38902     38904     38906     38905     38907
     38909     38908     38910     38912     38911     38913     38915     38914     38916
     38918     38917     38919     38921     38920     38922     38924     38923     38925
     38927     38926     38928     38930     38929     38931     38933     38932     38934
     38936     38935     38937     38939     38938     38940     38942     38941     38943
     38945     38944     38946     38948     38947     38949     38951     38950     38952
     38954     38953     38955     38957     38956     38958     38960     38959     38961
     38963     38962     38964     38966     38965     38967     38969     38968     38970
     38972     38971     38973     38975     38974     38976     38978     38977     38979
     38981     38980     38982     38984     38983     38985     38987     38986     38988
     38990     38989     38991     38993     38992     38994     38996     38995     38997
     38999     38998     39000     39002     39001     39003     39005     39004     39006
     39008     39007     39009     39011     39010     39012     39014     39013     39015
     39017     39016     39018     39020     39019     39021     39023     39022     39024
     39026     39025     39027     39029     39028     39030     39032     39031     39033
     39035     39034     39036     39038     39037     39039     39041     39040     39042
     39044     39043     39045     39047     39046     39048     39050     39049     39051
     39053     39052     39054     39056     39055     39057     39059     39058     39060
     39062     39061     39063     39065     39064     39066     39068     39067     39069
     39071     39070     39072     39074     39073     39075     39077     39076     39078
     39080     39079     39081     39083     39082     39084     39086     39085     39087
     39089     39088     39090     39092     39091     39093     39095     39094     39096
     39098     39097     39099     39101     39100     39102     39104     39103     39105
     39107     39106     39108     39110     39109     39111     39113     39112     39114
     39116     39115     39117     39119     39118     39120     39122     39121     39123
     39125     39124     39126     39128     39127     39129     39131     39130     39132
     39134     39133     39135     39137     39136     39138     39140     39139     39141
     39143     39142     39144     39146     39145     39147     39149     39148     39150
     39152     39151     39153     39155     39154     39156     39158     39157     39159
     39161     39160     39162     39164     39163     39165     39167     39166     39168
     39170     39169     39171     39173     39172     39174     39176     39175     39177
     39179     39178     39180     39182     39181     39183     39185     39184     39186
     39188     39187     39189     39191     39190     39192     39194     39193     39195
     39197     39196     39198     39200     39199     39201     39203     39202     39204
     39206     39205     39207     39209     39208     39210     39212     39211     39213
     39215     39214     39216     39218     39217     39219     39221     39220     39222
     39224     39223     39225     39227     39226     39228     39230     39229     39231
     39233     39232     39234     39236     39235     39237     39239     39238     39240
     39242     39241     39243     39245     39244     39246     39248     39247     39249
     39251     39250     39252     39254     39253     39255     39257     39256     39258
     39260     39259     39261     39263     39262     39264     39266     39265     39267
     39269     39268     39270     39272     39271     39273     39275     39274     39276
     39278     39277     39279     39281     39280     39282     39284     39283     39285
     39287     39286     39288     39290     39289     39291     39293     39292     39294
     39296     39295     39297     39299     39298     39300     39302     39301     39303
     39305     39304     39306     39308     39307     39309     39311     39310     39312
     39314     39313     39315     39317     39316     39318     39320     39319     39321
     39323     39322     39324     39326     39325     39327     39329     39328     39330
     39332     39331     39333     39335     39334     39336     39338     39337     39339
     39341     39340     39342     39344     39343     39345     39347     39346     39348
     39350     39349     39351     39353     39352     39354     39356     39355     39357
     39359     39358     39360     39362     39361     39363     39365     39364     39366
     39368     39367     39369     39371     39370     39372     39374     39373     39375
     39377     39376     39378     39380     39379     39381     39383     39382     39384
     39386     39385     39387     39389     39388     39390     39392     39391     39393
     39395     39394     39396     39398     39397     39399     39401     39400     39402
     39404     39403     39405     39407     39406     39408     39410     39409     39411
     39413     39412     39414     39416     39415     39417     39419     39418     39420
     39422     39421     39423     39425     39424     39426     39428     39427     39429
     39431     39430     39432     39434     39433     39435     39437     39436     39438
     39440     39439     39441     39443     39442     39444     39446     39445     39447
     39449     39448     39450     39452     39451     39453     39455     39454     39456
     39458     39457     39459     39461     39460     39462     39464     39463     39465
     39467     39466     39468     39470     39469     39471     39473     39472     39474
     39476     39475     39477     39479     39478     39480     39482     39481     39483
     39485     39484     39486     39488     39487     39489     39491     39490     39492
     39494     39493     39495     39497     39496     39498     39500     39499     39501
     39503     39502     39504     39506     39505     39507     39509     39508     39510
     39512     39511     39513     39515     39514     39516     39518     39517     39519
     39521     39520     39522     39524     39523     39525     39527     39526     39528
     39530     39529     39531     39533     39532     39534     39536     39535     39537
     39539     39538     39540     39542     39541     39543     39545     39544     39546
     39548     39547     39549     39551     39550     39552     39554     39553     39555
     39557     39556     39558     39560     39559     39561     39563     39562     39564
     39566     39565     39567     39569     39568     39570     39572     39571     39573
     39575     39574     39576     39578     39577     39579     39581     39580     39582
     39584     39583     39585     39587     39586     39588     39590     39589     39591
     39593     39592     39594     39596     39595     39597     39599     39598     39600
     39602     39601     39603     39605     39604     39606     39608     39607     39609
     39611     39610     39612     39614     39613     39615     39617     39616     39618
     39620     39619     39621     39623     39622     39624     39626     39625     39627
     39629     39628     39630     39632     39631     39633     39635     39634     39636
     39638     39637     39639     39641     39640     39642     39644     39643     39645
     39647     39646     39648     39650     39649     39651     39653     39652     39654
     39656     39655     39657     39659     39658     39660     39662     39661     39663
     39665     39664     39666     39668     39667     39669     39671     39670     39672
     39674     39673     39675     39677     39676     39678     39680     39679     39681
     39683     39682     39684     39686     39685     39687     39689     39688     39690
     39692     39691     39693     39695     39694     39696     39698     39697     39699
     39701     39700     39702     39704     39703     39705     39707     39706     39708
     39710     39709     39711     39713     39712     39714     39716     39715     39717
     39719     39718     39720     39722     39721     39723     39725     39724     39726
     39728     39727     39729     39731     39730     39732     39734     39733     39735
     39737     39736     39738     39740     39739     39741     39743     39742     39744
     39746     39745     39747     39749     39748     39750     39752     39751     39753
     39755     39754     39756     39758     39757     39759     39761     39760     39762
     39764     39763     39765     39767     39766     39768     39770     39769     39771
     39773     39772     39774     39776     39775     39777     39779     39778     39780
     39782     39781     39783     39785     39784     39786     39788     39787     39789
     39791     39790     39792     39794     39793     39795     39797     39796     39798
     39800     39799     39801     39803     39802     39804     39806     39805     39807
     39809     39808     39810     39812     39811     39813     39815     39814     39816
     39818     39817     39819     39821     39820     39822     39824     39823     39825
     39827     39826     39828     39830     39829     39831     39833     39832     39834
     39836     39835     39837     39839     39838     39840     39842     39841     39843
     39845     39844     39846     39848     39847     39849     39851     39850     39852
     39854     39853     39855     39857     39856     39858     39860     39859     39861
     39863     39862     39864     39866     39865     39867     39869     39868     39870
     39872     39871     39873     39875     39874     39876     39878     39877     39879
     39881     39880     39882     39884     39883     39885     39887     39886     39888
     39890     39889     39891     39893     39892     39894     39896     39895     39897
     39899     39898     39900     39902     39901     39903     39905     39904     39906
     39908     39907     39909     39911     39910     39912     39914     39913     39915
     39917     39916     39918     39920     39919     39921     39923     39922     39924
     39926     39925     39927     39929     39928     39930     39932     39931     39933
     39935     39934     39936     39938     39937     39939     39941     39940     39942
     39944     39943     39945     39947     39946     39948     39950     39949     39951
     39953     39952     39954     39956     39955     39957     39959     39958     39960
     39962     39961     39963     39965     39964     39966     39968     39967     39969
     39971     39970     39972     39974     39973     39975     39977     39976     39978
     39980     39979     39981     39983     39982     39984     39986     39985     39987
     39989     39988     39990     39992     39991     39993     39995     39994     39996
     39998     39997     39999     40001     40000     40002     40004     40003     40005
     40007     40006     40008     40010     40009     40011     40013     40012     40014
     40016     40015     40017     40019     40018     40020     40022     40021     40023
     40025     40024     40026     40028     40027     40029     40031     40030     40032
     40034     40033     40035     40037     40036     40038     40040     40039     40041
     40043     40042     40044     40046     40045     40047     40049     40048     40050
     40052     40051     40053     40055     40054     40056     40058     40057     40059
     40061     40060     40062     40064     40063     40065     40067     40066     40068
     40070     40069     40071     40073     40072     40074     40076     40075     40077
     40079     40078     40080     40082     40081     40083     40085     40084     40086
     40088     40087     40089     40091     40090     40092     40094     40093     40095
     40097     40096     40098     40100     40099     40101     40103     40102     40104
     40106     40105     40107     40109     40108     40110     40112     40111     40113
     40115     40114     40116     40118     40117     40119     40121     40120     40122
     40124     40123     40125     40127     40126     40128     40130     40129     40131
     40133     40132     40134     40136     40135     40137     40139     40138     40140
     40142     40141     40143     40145     40144     40146     40148     40147     40149
     40151     40150     40152     40154     40153     40155     40157     40156     40158
     40160     40159     40161     40163     40162     40164     40166     40165     40167
     40169     40168     40170     40172     40171     40173     40175     40174     40176
     40178     40177     40179     40181     40180     40182     40184     40183     40185
     40187     40186     40188     40190     40189     40191     40193     40192     40194
     40196     40195     40197     40199     40198     40200     40202     40201     40203
     40205     40204     40206     40208     40207     40209     40211     40210     40212
     40214     40213     40215     40217     40216     40218     40220     40219     40221
     40223     40222     40224     40226     40225     40227     40229     40228     40230
     40232     40231     40233     40235     40234     40236     40238     40237     40239
     40241     40240     40242     40244     40243     40245     40247     40246     40248
     40250     40249     40251     40253     40252     40254     40256     40255     40257
     40259     40258     40260     40262     40261     40263     40265     40264     40266
     40268     40267     40269     40271     40270     40272     40274     40273     40275
     40277     40276     40278     40280     40279     40281     40283     40282     40284
     40286     40285     40287     40289     40288     40290     40292     40291     40293
     40295     40294     40296     40298     40297     40299     40301     40300     40302
     40304     40303     40305     40307     40306     40308     40310     40309     40311
     40313     40312     40314     40316     40315     40317     40319     40318     40320
     40322     40321     40323     40325     40324     40326     40328     40327     40329
     40331     40330     40332     40334     40333     40335     40337     40336     40338
     40340     40339     40341     40343     40342     40344     40346     40345     40347
     40349     40348     40350     40352     40351     40353     40355     40354     40356
     40358     40357     40359     40361     40360     40362     40364     40363     40365
     40367     40366     40368     40370     40369     40371     40373     40372     40374
     40376     40375     40377     40379     40378     40380     40382     40381     40383
     40385     40384     40386     40388     40387     40389     40391     40390     40392
     40394     40393     40395     40397     40396     40398     40400     40399     40401
     40403     40402     40404     40406     40405     40407     40409     40408     40410
     40412     40411     40413     40415     40414     40416     40418     40417     40419
     40421     40420     40422     40424     40423     40425     40427     40426     40428
     40430     40429     40431     40433     40432     40434     40436     40435     40437
     40439     40438     40440     40442     40441     40443     40445     40444     40446
     40448     40447     40449     40451     40450     40452     40454     40453     40455
     40457     40456     40458     40460     40459     40461     40463     40462     40464
     40466     40465     40467     40469     40468     40470     40472     40471     40473
     40475     40474     40476     40478     40477     40479     40481     40480     40482
     40484     40483     40485     40487     40486     40488     40490     40489     40491
     40493     40492     40494     40496     40495     40497     40499     40498     40500
     40502     40501     40503     40505     40504     40506     40508     40507     40509
     40511     40510     40512     40514     40513     40515     40517     40516     40518
     40520     40519     40521     40523     40522     40524     40526     40525     40527
     40529     40528     40530     40532     40531     40533     40535     40534     40536
     40538     40537     40539     40541     40540     40542     40544     40543     40545
     40547     40546     40548     40550     40549     40551     40553     40552     40554
     40556     40555     40557     40559     40558     40560     40562     40561     40563
     40565     40564     40566     40568     40567     40569     40571     40570     40572
     40574     40573     40575     40577     40576     40578     40580     40579     40581
     40583     40582     40584     40586     40585     40587     40589     40588     40590
     40592     40591     40593     40595     40594     40596     40598     40597     40599
     40601     40600     40602     40604     40603     40605     40607     40606     40608
     40610     40609     40611     40613     40612     40614     40616     40615     40617
     40619     40618     40620     40622     40621     40623     40625     40624     40626
     40628     40627     40629     40631     40630     40632     40634     40633     40635
     40637     40636     40638     40640     40639     40641     40643     40642     40644
     40646     40645     40647     40649     40648     40650     40652     40651     40653
     40655     40654     40656     40658     40657     40659     40661     40660     40662
     40664     40663     40665     40667     40666     40668     40670     40669     40671
     40673     40672     40674     40676     40675     40677     40679     40678     40680
     40682     40681     40683     40685     40684     40686     40688     40687     40689
     40691     40690     40692     40694     40693     40695     40697     40696     40698
     40700     40699     40701     40703     40702     40704     40706     40705     40707
     40709     40708     40710     40712     40711     40713     40715     40714     40716
     40718     40717     40719     40721     40720     40722     40724     40723     40725
     40727     40726     40728     40730     40729     40731     40733     40732     40734
     40736     40735     40737     40739     40738     40740     40742     40741     40743
     40745     40744     40746     40748     40747     40749     40751     40750     40752
     40754     40753     40755     40757     40756     40758     40760     40759     40761
     40763     40762     40764     40766     40765     40767     40769     40768     40770
     40772     40771     40773     40775     40774     40776     40778     40777     40779
     40781     40780     40782     40784     40783     40785     40787     40786     40788
     40790     40789     40791     40793     40792     40794     40796     40795     40797
     40799     40798     40800     40802     40801     40803     40805     40804     40806
     40808     40807     40809     40811     40810     40812     40814     40813     40815
     40817     40816     40818     40820     40819     40821     40823     40822     40824
     40826     40825     40827     40829     40828     40830     40832     40831     40833
     40835     40834     40836     40838     40837     40839     40841     40840     40842
     40844     40843     40845     40847     40846     40848     40850     40849     40851
     40853     40852     40854     40856     40855     40857     40859     40858     40860
     40862     40861     40863     40865     40864     40866     40868     40867     40869
     40871     40870     40872     40874     40873     40875     40877     40876     40878
     40880     40879     40881     40883     40882     40884     40886     40885     40887
     40889     40888     40890     40892     40891     40893     40895     40894     40896
     40898     40897     40899     40901     40900     40902     40904     40903     40905
     40907     40906     40908     40910     40909     40911     40913     40912     40914
     40916     40915     40917     40919     40918     40920     40922     40921     40923
     40925     40924     40926     40928     40927     40929     40931     40930     40932
     40934     40933     40935     40937     40936     40938     40940     40939     40941
     40943     40942     40944     40946     40945     40947     40949     40948     40950
     40952     40951     40953     40955     40954     40956     40958     40957     40959
     40961     40960     40962     40964     40963     40965     40967     40966     40968
     40970     40969     40971     40973     40972     40974     40976     40975     40977
     40979     40978     40980     40982     40981     40983     40985     40984     40986
     40988     40987     40989     40991     40990     40992     40994     40993     40995
     40997     40996     40998     41000     40999     41001     41003     41002     41004
     41006     41005     41007     41009     41008     41010     41012     41011     41013
     41015     41014     41016     41018     41017     41019     41021     41020     41022
     41024     41023     41025     41027     41026     41028     41030     41029     41031
     41033     41032     41034     41036     41035     41037     41039     41038     41040
     41042     41041     41043     41045     41044     41046     41048     41047     41049
     41051     41050     41052     41054     41053     41055     41057     41056     41058
     41060     41059     41061     41063     41062     41064     41066     41065     41067
     41069     41068     41070     41072     41071     41073     41075     41074     41076
     41078     41077     41079     41081     41080     41082     41084     41083     41085
     41087     41086     41088     41090     41089     41091     41093     41092     41094
     41096     41095     41097     41099     41098     41100     41102     41101     41103
     41105     41104     41106     41108     41107     41109     41111     41110     41112
     41114     41113     41115     41117     41116     41118     41120     41119     41121
     41123     41122     41124     41126     41125     41127     41129     41128     41130
     41132     41131     41133     41135     41134     41136     41138     41137     41139
     41141     41140     41142     41144     41143     41145     41147     41146     41148
     41150     41149     41151     41153     41152     41154     41156     41155     41157
     41159     41158     41160     41162     41161     41163     41165     41164     41166
     41168     41167     41169     41171     41170     41172     41174     41173     41175
     41177     41176     41178     41180     41179     41181     41183     41182     41184
     41186     41185     41187     41189     41188     41190     41192     41191     41193
     41195     41194     41196     41198     41197     41199     41201     41200     41202
     41204     41203     41205     41207     41206     41208     41210     41209     41211
     41213     41212     41214     41216     41215     41217     41219     41218     41220
     41222     41221     41223     41225     41224     41226     41228     41227     41229
     41231     41230     41232     41234     41233     41235     41237     41236     41238
     41240     41239     41241     41243     41242     41244     41246     41245     41247
     41249     41248     41250     41252     41251     41253     41255     41254     41256
     41258     41257     41259     41261     41260     41262     41264     41263     41265
     41267     41266     41268     41270     41269     41271     41273     41272     41274
     41276     41275     41277     41279     41278     41280     41282     41281     41283
     41285     41284     41286     41288     41287     41289     41291     41290     41292
     41294     41293     41295     41297     41296     41298     41300     41299     41301
     41303     41302     41304     41306     41305     41307     41309     41308     41310
     41312     41311     41313     41315     41314     41316     41318     41317     41319
     41321     41320     41322     41324     41323     41325     41327     41326     41328
     41330     41329     41331     41333     41332     41334     41336     41335     41337
     41339     41338     41340     41342     41341     41343     41345     41344     41346
     41348     41347     41349     41351     41350     41352     41354     41353     41355
     41357     41356     41358     41360     41359     41361     41363     41362     41364
     41366     41365     41367     41369     41368     41370     41372     41371     41373
     41375     41374     41376     41378     41377     41379     41381     41380     41382
     41384     41383     41385     41387     41386     41388     41390     41389     41391
     41393     41392     41394     41396     41395     41397     41399     41398     41400
     41402     41401     41403     41405     41404     41406     41408     41407     41409
     41411     41410     41412     41414     41413     41415     41417     41416     41418
     41420     41419     41421     41423     41422     41424     41426     41425     41427
     41429     41428     41430     41432     41431     41433     41435     41434     41436
     41438     41437     41439     41441     41440     41442     41444     41443     41445
     41447     41446     41448     41450     41449     41451     41453     41452     41454
     41456     41455     41457     41459     41458     41460     41462     41461     41463
     41465     41464     41466     41468     41467     41469     41471     41470     41472
     41474     41473     41475     41477     41476     41478     41480     41479     41481
     41483     41482     41484     41486     41485     41487     41489     41488     41490
     41492     41491     41493     41495     41494     41496     41498     41497     41499
     41501     41500     41502     41504     41503     41505     41507     41506     41508
     41510     41509     41511     41513     41512     41514     41516     41515     41517
     41519     41518     41520     41522     41521     41523     41525     41524     41526
     41528     41527     41529     41531     41530     41532     41534     41533     41535
     41537     41536     41538     41540     41539     41541     41543     41542     41544
     41546     41545     41547     41549     41548     41550     41552     41551     41553
     41555     41554     41556     41558     41557     41559     41561     41560     41562
     41564     41563     41565     41567     41566     41568     41570     41569     41571
     41573     41572     41574     41576     41575     41577     41579     41578     41580
     41582     41581     41583     41585     41584     41586     41588     41587     41589
     41591     41590     41592     41594     41593     41595     41597     41596     41598
     41600     41599     41601     41603     41602     41604     41606     41605     41607
     41609     41608     41610     41612     41611     41613     41615     41614     41616
     41618     41617     41619     41621     41620     41622     41624     41623     41625
     41627     41626     41628     41630     41629     41631     41633     41632     41634
     41636     41635     41637     41639     41638     41640     41642     41641     41643
     41645     41644     41646     41648     41647     41649     41651     41650     41652
     41654     41653     41655     41657     41656     41658     41660     41659     41661
     41663     41662     41664     41666     41665     41667     41669     41668     41670
     41672     41671     41673     41675     41674     41676     41678     41677     41679
     41681     41680     41682     41684     41683     41685     41687     41686     41688
     41690     41689     41691     41693     41692     41694     41696     41695     41697
     41699     41698     41700     41702     41701     41703     41705     41704     41706
     41708     41707     41709     41711     41710     41712     41714     41713     41715
     41717     41716     41718     41720     41719     41721     41723     41722     41724
     41726     41725     41727     41729     41728     41730     41732     41731     41733
     41735     41734     41736     41738     41737     41739     41741     41740     41742
     41744     41743     41745     41747     41746     41748     41750     41749     41751
     41753     41752     41754     41756     41755     41757     41759     41758     41760
     41762     41761     41763     41765     41764     41766     41768     41767     41769
     41771     41770     41772     41774     41773     41775     41777     41776     41778
     41780     41779     41781     41783     41782     41784     41786     41785     41787
     41789     41788     41790     41792     41791     41793     41795     41794     41796
     41798     41797     41799     41801     41800     41802     41804     41803     41805
     41807     41806     41808     41810     41809     41811     41813     41812     41814
     41816     41815     41817     41819     41818     41820     41822     41821     41823
     41825     41824     41826     41828     41827     41829     41831     41830     41832
     41834     41833     41835     41837     41836     41838     41840     41839     41841
     41843     41842     41844     41846     41845     41847     41849     41848     41850
     41852     41851     41853     41855     41854     41856     41858     41857     41859
     41861     41860     41862     41864     41863     41865     41867     41866     41868
     41870     41869     41871     41873     41872     41874     41876     41875     41877
     41879     41878     41880     41882     41881     41883     41885     41884     41886
     41888     41887     41889     41891     41890     41892     41894     41893     41895
     41897     41896     41898     41900     41899     41901     41903     41902     41904
     41906     41905     41907     41909     41908     41910     41912     41911     41913
     41915     41914     41916     41918     41917     41919     41921     41920     41922
     41924     41923     41925     41927     41926     41928     41930     41929     41931
     41933     41932     41934     41936     41935     41937     41939     41938     41940
     41942     41941     41943     41945     41944     41946     41948     41947     41949
     41951     41950     41952     41954     41953     41955     41957     41956     41958
     41960     41959     41961     41963     41962     41964     41966     41965     41967
     41969     41968     41970     41972     41971     41973     41975     41974     41976
     41978     41977     41979     41981     41980     41982     41984     41983     41985
     41987     41986     41988     41990     41989     41991     41993     41992     41994
     41996     41995     41997     41999     41998     42000     42002     42001     42003
     42005     42004     42006     42008     42007     42009     42011     42010     42012
     42014     42013     42015     42017     42016     42018     42020     42019     42021
     42023     42022     42024     42026     42025     42027     42029     42028     42030
     42032     42031     42033     42035     42034     42036     42038     42037     42039
     42041     42040     42042     42044     42043     42045     42047     42046     42048
     42050     42049     42051     42053     42052     42054     42056     42055     42057
     42059     42058     42060     42062     42061     42063     42065     42064     42066
     42068     42067     42069     42071     42070     42072     42074     42073     42075
     42077     42076     42078     42080     42079     42081     42083     42082     42084
     42086     42085     42087     42089     42088     42090     42092     42091     42093
     42095     42094     42096     42098     42097     42099     42101     42100     42102
     42104     42103     42105     42107     42106     42108     42110     42109     42111
     42113     42112     42114     42116     42115     42117     42119     42118     42120
     42122     42121     42123     42125     42124     42126     42128     42127     42129
     42131     42130     42132     42134     42133     42135     42137     42136     42138
     42140     42139     42141     42143     42142     42144     42146     42145     42147
     42149     42148     42150     42152     42151     42153     42155     42154     42156
     42158     42157     42159     42161     42160     42162     42164     42163     42165
     42167     42166     42168     42170     42169     42171     42173     42172     42174
     42176     42175     42177     42179     42178     42180     42182     42181     42183
     42185     42184     42186     42188     42187     42189     42191     42190     42192
     42194     42193     42195     42197     42196     42198     42200     42199     42201
     42203     42202     42204     42206     42205     42207     42209     42208     42210
     42212     42211     42213     42215     42214     42216     42218     42217     42219
     42221     42220     42222     42224     42223     42225     42227     42226     42228
     42230     42229     42231     42233     42232     42234     42236     42235     42237
     42239     42238     42240     42242     42241     42243     42245     42244     42246
     42248     42247     42249     42251     42250     42252     42254     42253     42255
     42257     42256     42258     42260     42259     42261     42263     42262     42264
     42266     42265     42267     42269     42268     42270     42272     42271     42273
     42275     42274     42276     42278     42277     42279     42281     42280     42282
     42284     42283     42285     42287     42286     42288     42290     42289     42291
     42293     42292     42294     42296     42295     42297     42299     42298     42300
     42302     42301     42303     42305     42304     42306     42308     42307     42309
     42311     42310     42312     42314     42313     42315     42317     42316     42318
     42320     42319     42321     42323     42322     42324     42326     42325     42327
     42329     42328     42330     42332     42331     42333     42335     42334     42336
     42338     42337     42339     42341     42340     42342     42344     42343     42345
     42347     42346     42348     42350     42349     42351     42353     42352     42354
     42356     42355     42357     42359     42358     42360     42362     42361     42363
     42365     42364     42366     42368     42367     42369     42371     42370     42372
     42374     42373     42375     42377     42376     42378     42380     42379     42381
     42383     42382     42384     42386     42385     42387     42389     42388     42390
     42392     42391     42393     42395     42394     42396     42398     42397     42399
     42401     42400     42402     42404     42403     42405     42407     42406     42408
     42410     42409     42411     42413     42412     42414     42416     42415     42417
     42419     42418     42420     42422     42421     42423     42425     42424     42426
     42428     42427     42429     42431     42430     42432     42434     42433     42435
     42437     42436     42438     42440     42439     42441     42443     42442     42444
     42446     42445     42447     42449     42448     42450     42452     42451     42453
     42455     42454     42456     42458     42457     42459     42461     42460     42462
     42464     42463     42465     42467     42466     42468     42470     42469     42471
     42473     42472     42474     42476     42475     42477     42479     42478     42480
     42482     42481     42483     42485     42484     42486     42488     42487     42489
     42491     42490     42492     42494     42493     42495     42497     42496     42498
     42500     42499     42501     42503     42502     42504     42506     42505     42507
     42509     42508     42510     42512     42511     42513     42515     42514     42516
     42518     42517     42519     42521     42520     42522     42524     42523     42525
     42527     42526     42528     42530     42529     42531     42533     42532     42534
     42536     42535     42537     42539     42538     42540     42542     42541     42543
     42545     42544     42546     42548     42547     42549     42551     42550     42552
     42554     42553     42555     42557     42556     42558     42560     42559     42561
     42563     42562     42564     42566     42565     42567     42569     42568     42570
     42572     42571     42573     42575     42574     42576     42578     42577     42579
     42581     42580     42582     42584     42583     42585     42587     42586     42588
     42590     42589     42591     42593     42592     42594     42596     42595     42597
     42599     42598     42600     42602     42601     42603     42605     42604     42606
     42608     42607     42609     42611     42610     42612     42614     42613     42615
     42617     42616     42618     42620     42619     42621     42623     42622     42624
     42626     42625     42627     42629     42628     42630     42632     42631     42633
     42635     42634     42636     42638     42637     42639     42641     42640     42642
     42644     42643     42645     42647     42646     42648     42650     42649     42651
     42653     42652     42654     42656     42655     42657     42659     42658     42660
     42662     42661     42663     42665     42664     42666     42668     42667     42669
     42671     42670     42672     42674     42673     42675     42677     42676     42678
     42680     42679     42681     42683     42682     42684     42686     42685     42687
     42689     42688     42690     42692     42691     42693     42695     42694     42696
     42698     42697     42699     42701     42700     42702     42704     42703     42705
     42707     42706     42708     42710     42709     42711     42713     42712     42714
     42716     42715     42717     42719     42718     42720     42722     42721     42723
     42725     42724     42726     42728     42727     42729     42731     42730     42732
     42734     42733     42735     42737     42736     42738     42740     42739     42741
     42743     42742     42744     42746     42745     42747     42749     42748     42750
     42752     42751     42753     42755     42754     42756     42758     42757     42759
     42761     42760     42762     42764     42763     42765     42767     42766     42768
     42770     42769     42771     42773     42772     42774     42776     42775     42777
     42779     42778     42780     42782     42781     42783     42785     42784     42786
     42788     42787     42789     42791     42790     42792     42794     42793     42795
     42797     42796     42798     42800     42799     42801     42803     42802     42804
     42806     42805     42807     42809     42808     42810     42812     42811     42813
     42815     42814     42816     42818     42817     42819     42821     42820     42822
     42824     42823     42825     42827     42826     42828     42830     42829     42831
     42833     42832     42834     42836     42835     42837     42839     42838     42840
     42842     42841     42843     42845     42844     42846     42848     42847     42849
     42851     42850     42852     42854     42853     42855     42857     42856     42858
     42860     42859     42861     42863     42862     42864     42866     42865     42867
     42869     42868     42870     42872     42871     42873     42875     42874     42876
     42878     42877     42879     42881     42880     42882     42884     42883     42885
     42887     42886     42888     42890     42889     42891     42893     42892     42894
     42896     42895     42897     42899     42898     42900     42902     42901     42903
     42905     42904     42906     42908     42907     42909     42911     42910     42912
     42914     42913     42915     42917     42916     42918     42920     42919     42921
     42923     42922     42924     42926     42925     42927     42929     42928     42930
     42932     42931     42933     42935     42934     42936     42938     42937     42939
     42941     42940     42942     42944     42943     42945     42947     42946     42948
     42950     42949     42951     42953     42952     42954     42956     42955     42957
     42959     42958     42960     42962     42961     42963     42965     42964     42966
     42968     42967     42969     42971     42970     42972     42974     42973     42975
     42977     42976     42978     42980     42979     42981     42983     42982     42984
     42986     42985     42987     42989     42988     42990     42992     42991     42993
     42995     42994     42996     42998     42997     42999     43001     43000     43002
     43004     43003     43005     43007     43006     43008     43010     43009     43011
     43013     43012     43014     43016     43015     43017     43019     43018     43020
     43022     43021     43023     43025     43024     43026     43028     43027     43029
     43031     43030     43032     43034     43033     43035     43037     43036     43038
     43040     43039     43041     43043     43042     43044     43046     43045     43047
     43049     43048     43050     43052     43051     43053     43055     43054     43056
     43058     43057     43059     43061     43060     43062     43064     43063     43065
     43067     43066     43068     43070     43069     43071     43073     43072     43074
     43076     43075     43077     43079     43078     43080     43082     43081     43083
     43085     43084     43086     43088     43087     43089     43091     43090     43092
     43094     43093     43095     43097     43096     43098     43100     43099     43101
     43103     43102     43104     43106     43105     43107     43109     43108     43110
     43112     43111     43113     43115     43114     43116     43118     43117     43119
     43121     43120     43122     43124     43123     43125     43127     43126     43128
     43130     43129     43131     43133     43132     43134     43136     43135     43137
     43139     43138     43140     43142     43141     43143     43145     43144     43146
     43148     43147     43149     43151     43150     43152     43154     43153     43155
     43157     43156     43158     43160     43159     43161     43163     43162     43164
     43166     43165     43167     43169     43168     43170     43172     43171     43173
     43175     43174     43176     43178     43177     43179     43181     43180     43182
     43184     43183     43185     43187     43186     43188     43190     43189     43191
     43193     43192     43194     43196     43195     43197     43199     43198     43200
     43202     43201     43203     43205     43204     43206     43208     43207     43209
     43211     43210     43212     43214     43213     43215     43217     43216     43218
     43220     43219     43221     43223     43222     43224     43226     43225     43227
     43229     43228     43230     43232     43231     43233     43235     43234     43236
     43238     43237     43239     43241     43240     43242     43244     43243     43245
     43247     43246     43248     43250     43249     43251     43253     43252     43254
     43256     43255     43257     43259     43258     43260     43262     43261     43263
     43265     43264     43266     43268     43267     43269     43271     43270     43272
     43274     43273     43275     43277     43276     43278     43280     43279     43281
     43283     43282     43284     43286     43285     43287     43289     43288     43290
     43292     43291     43293     43295     43294     43296     43298     43297     43299
     43301     43300     43302     43304     43303     43305     43307     43306     43308
     43310     43309     43311     43313     43312     43314     43316     43315     43317
     43319     43318     43320     43322     43321     43323     43325     43324     43326
     43328     43327     43329     43331     43330     43332     43334     43333     43335
     43337     43336     43338     43340     43339     43341     43343     43342     43344
     43346     43345     43347     43349     43348     43350     43352     43351     43353
     43355     43354     43356     43358     43357     43359     43361     43360     43362
     43364     43363     43365     43367     43366     43368     43370     43369     43371
     43373     43372     43374     43376     43375     43377     43379     43378     43380
     43382     43381     43383     43385     43384     43386     43388     43387     43389
     43391     43390     43392     43394     43393     43395     43397     43396     43398
     43400     43399     43401     43403     43402     43404     43406     43405     43407
     43409     43408     43410     43412     43411     43413     43415     43414     43416
     43418     43417     43419     43421     43420     43422     43424     43423     43425
     43427     43426     43428     43430     43429     43431     43433     43432     43434
     43436     43435     43437     43439     43438     43440     43442     43441     43443
     43445     43444     43446     43448     43447     43449     43451     43450     43452
     43454     43453     43455     43457     43456     43458     43460     43459     43461
     43463     43462     43464     43466     43465     43467     43469     43468     43470
     43472     43471     43473     43475     43474     43476     43478     43477     43479
     43481     43480     43482     43484     43483     43485     43487     43486     43488
     43490     43489     43491     43493     43492     43494     43496     43495     43497
     43499     43498     43500     43502     43501     43503     43505     43504     43506
     43508     43507     43509     43511     43510     43512     43514     43513     43515
     43517     43516     43518     43520     43519     43521     43523     43522     43524
     43526     43525     43527     43529     43528     43530     43532     43531     43533
     43535     43534     43536     43538     43537     43539     43541     43540     43542
     43544     43543     43545     43547     43546     43548     43550     43549     43551
     43553     43552     43554     43556     43555     43557     43559     43558     43560
     43562     43561     43563     43565     43564     43566     43568     43567     43569
     43571     43570     43572     43574     43573     43575     43577     43576     43578
     43580     43579     43581     43583     43582     43584     43586     43585     43587
     43589     43588     43590     43592     43591     43593     43595     43594     43596
     43598     43597     43599     43601     43600     43602     43604     43603     43605
     43607     43606     43608     43610     43609     43611     43613     43612     43614
     43616     43615     43617     43619     43618     43620     43622     43621     43623
     43625     43624     43626     43628     43627     43629     43631     43630     43632
     43634     43633     43635     43637     43636     43638     43640     43639     43641
     43643     43642     43644     43646     43645     43647     43649     43648     43650
     43652     43651     43653     43655     43654     43656     43658     43657     43659
     43661     43660     43662     43664     43663     43665     43667     43666     43668
     43670     43669     43671     43673     43672     43674     43676     43675     43677
     43679     43678     43680     43682     43681     43683     43685     43684     43686
     43688     43687     43689     43691     43690     43692     43694     43693     43695
     43697     43696     43698     43700     43699     43701     43703     43702     43704
     43706     43705     43707     43709     43708     43710     43712     43711     43713
     43715     43714     43716     43718     43717     43719     43721     43720     43722
     43724     43723     43725     43727     43726     43728     43730     43729     43731
     43733     43732     43734     43736     43735     43737     43739     43738     43740
     43742     43741     43743     43745     43744     43746     43748     43747     43749
     43751     43750     43752     43754     43753     43755     43757     43756     43758
     43760     43759     43761     43763     43762     43764     43766     43765     43767
     43769     43768     43770     43772     43771     43773     43775     43774     43776
     43778     43777     43779     43781     43780     43782     43784     43783     43785
     43787     43786     43788     43790     43789     43791     43793     43792     43794
     43796     43795     43797     43799     43798     43800     43802     43801     43803
     43805     43804     43806     43808     43807     43809     43811     43810     43812
     43814     43813     43815     43817     43816     43818     43820     43819     43821
     43823     43822     43824     43826     43825     43827     43829     43828     43830
     43832     43831     43833     43835     43834     43836     43838     43837     43839
     43841     43840     43842     43844     43843     43845     43847     43846     43848
     43850     43849     43851     43853     43852     43854     43856     43855     43857
     43859     43858     43860     43862     43861     43863     43865     43864     43866
     43868     43867     43869     43871     43870     43872     43874     43873     43875
     43877     43876     43878     43880     43879     43881     43883     43882     43884
     43886     43885     43887     43889     43888     43890     43892     43891     43893
     43895     43894     43896     43898     43897     43899     43901     43900     43902
     43904     43903     43905     43907     43906     43908     43910     43909     43911
     43913     43912     43914     43916     43915     43917     43919     43918     43920
     43922     43921     43923     43925     43924     43926     43928     43927     43929
     43931     43930     43932     43934     43933     43935     43937     43936     43938
     43940     43939     43941     43943     43942     43944     43946     43945     43947
     43949     43948     43950     43952     43951     43953     43955     43954     43956
     43958     43957     43959     43961     43960     43962     43964     43963     43965
     43967     43966     43968     43970     43969     43971     43973     43972     43974
     43976     43975     43977     43979     43978     43980     43982     43981     43983
     43985     43984     43986     43988     43987     43989     43991     43990     43992
     43994     43993     43995     43997     43996     43998     44000     43999     44001
     44003     44002     44004     44006     44005     44007     44009     44008     44010
     44012     44011     44013     44015     44014     44016     44018     44017     44019
     44021     44020     44022     44024     44023     44025     44027     44026     44028
     44030     44029     44031     44033     44032     44034     44036     44035     44037
     44039     44038     44040     44042     44041     44043     44045     44044     44046
     44048     44047     44049     44051     44050     44052     44054     44053     44055
     44057     44056     44058     44060     44059     44061     44063     44062     44064
     44066     44065     44067     44069     44068     44070     44072     44071     44073
     44075     44074     44076     44078     44077     44079     44081     44080     44082
     44084     44083     44085     44087     44086     44088     44090     44089     44091
     44093     44092     44094     44096     44095     44097     44099     44098     44100
     44102     44101     44103     44105     44104     44106     44108     44107     44109
     44111     44110     44112     44114     44113     44115     44117     44116     44118
     44120     44119     44121     44123     44122     44124     44126     44125     44127
     44129     44128     44130     44132     44131     44133     44135     44134     44136
     44138     44137     44139     44141     44140     44142     44144     44143     44145
     44147     44146     44148     44150     44149     44151     44153     44152     44154
     44156     44155     44157     44159     44158     44160     44162     44161     44163
     44165     44164     44166     44168     44167     44169     44171     44170     44172
     44174     44173     44175     44177     44176     44178     44180     44179     44181
     44183     44182     44184     44186     44185     44187     44189     44188     44190
     44192     44191     44193     44195     44194     44196     44198     44197     44199
     44201     44200     44202     44204     44203     44205     44207     44206     44208
     44210     44209     44211     44213     44212     44214     44216     44215     44217
     44219     44218     44220     44222     44221     44223     44225     44224     44226
     44228     44227     44229     44231     44230     44232     44234     44233     44235
     44237     44236     44238     44240     44239     44241     44243     44242     44244
     44246     44245     44247     44249     44248     44250     44252     44251     44253
     44255     44254     44256     44258     44257     44259     44261     44260     44262
     44264     44263     44265     44267     44266     44268     44270     44269     44271
     44273     44272     44274     44276     44275     44277     44279     44278     44280
     44282     44281     44283     44285     44284     44286     44288     44287     44289
     44291     44290     44292     44294     44293     44295     44297     44296     44298
     44300     44299     44301     44303     44302     44304     44306     44305     44307
     44309     44308     44310     44312     44311     44313     44315     44314     44316
     44318     44317     44319     44321     44320     44322     44324     44323     44325
     44327     44326     44328     44330     44329     44331     44333     44332     44334
     44336     44335     44337     44339     44338     44340     44342     44341     44343
     44345     44344     44346     44348     44347     44349     44351     44350     44352
     44354     44353     44355     44357     44356     44358     44360     44359     44361
     44363     44362     44364     44366     44365     44367     44369     44368     44370
     44372     44371     44373     44375     44374     44376     44378     44377     44379
     44381     44380     44382     44384     44383     44385     44387     44386     44388
     44390     44389     44391     44393     44392     44394     44396     44395     44397
     44399     44398     44400     44402     44401     44403     44405     44404     44406
     44408     44407     44409     44411     44410     44412     44414     44413     44415
     44417     44416     44418     44420     44419     44421     44423     44422     44424
     44426     44425     44427     44429     44428     44430     44432     44431     44433
     44435     44434     44436     44438     44437     44439     44441     44440     44442
     44444     44443     44445     44447     44446     44448     44450     44449     44451
     44453     44452     44454     44456     44455     44457     44459     44458     44460
     44462     44461     44463     44465     44464     44466     44468     44467     44469
     44471     44470     44472     44474     44473     44475     44477     44476     44478
     44480     44479     44481     44483     44482     44484     44486     44485     44487
     44489     44488     44490     44492     44491     44493     44495     44494     44496
     44498     44497     44499     44501     44500     44502     44504     44503     44505
     44507     44506     44508     44510     44509     44511     44513     44512     44514
     44516     44515     44517     44519     44518     44520     44522     44521     44523
     44525     44524     44526     44528     44527     44529     44531     44530     44532
     44534     44533     44535     44537     44536     44538     44540     44539     44541
     44543     44542     44544     44546     44545     44547     44549     44548     44550
     44552     44551     44553     44555     44554     44556     44558     44557     44559
     44561     44560     44562     44564     44563     44565     44567     44566     44568
     44570     44569     44571     44573     44572     44574     44576     44575     44577
     44579     44578     44580     44582     44581     44583     44585     44584     44586
     44588     44587     44589     44591     44590     44592     44594     44593     44595
     44597     44596     44598     44600     44599     44601     44603     44602     44604
     44606     44605     44607     44609     44608     44610     44612     44611     44613
     44615     44614     44616     44618     44617     44619     44621     44620     44622
     44624     44623     44625     44627     44626     44628     44630     44629     44631
     44633     44632     44634     44636     44635     44637     44639     44638     44640
     44642     44641     44643     44645     44644     44646     44648     44647     44649
     44651     44650     44652     44654     44653     44655     44657     44656     44658
     44660     44659     44661     44663     44662     44664     44666     44665     44667
     44669     44668     44670     44672     44671     44673     44675     44674     44676
     44678     44677     44679     44681     44680     44682     44684     44683     44685
     44687     44686     44688     44690     44689     44691     44693     44692     44694
     44696     44695     44697     44699     44698     44700     44702     44701     44703
     44705     44704     44706     44708     44707     44709     44711     44710     44712
     44714     44713     44715     44717     44716     44718     44720     44719     44721
     44723     44722     44724     44726     44725     44727     44729     44728     44730
     44732     44731     44733     44735     44734     44736     44738     44737     44739
     44741     44740     44742     44744     44743     44745     44747     44746     44748
     44750     44749     44751     44753     44752     44754     44756     44755     44757
     44759     44758     44760     44762     44761     44763     44765     44764     44766
     44768     44767     44769     44771     44770     44772     44774     44773     44775
     44777     44776     44778     44780     44779     44781     44783     44782     44784
     44786     44785     44787     44789     44788     44790     44792     44791     44793
     44795     44794     44796     44798     44797     44799     44801     44800     44802
     44804     44803     44805     44807     44806     44808     44810     44809     44811
     44813     44812     44814     44816     44815     44817     44819     44818     44820
     44822     44821     44823     44825     44824     44826     44828     44827     44829
     44831     44830     44832     44834     44833     44835     44837     44836     44838
     44840     44839     44841     44843     44842     44844     44846     44845     44847
     44849     44848     44850     44852     44851     44853     44855     44854     44856
     44858     44857     44859     44861     44860     44862     44864     44863     44865
     44867     44866     44868     44870     44869     44871     44873     44872     44874
     44876     44875     44877     44879     44878     44880     44882     44881     44883
     44885     44884     44886     44888     44887     44889     44891     44890     44892
     44894     44893     44895     44897     44896     44898     44900     44899     44901
     44903     44902     44904     44906     44905     44907     44909     44908     44910
     44912     44911     44913     44915     44914     44916     44918     44917     44919
     44921     44920     44922     44924     44923     44925     44927     44926     44928
     44930     44929     44931     44933     44932     44934     44936     44935     44937
     44939     44938     44940     44942     44941     44943     44945     44944     44946
     44948     44947     44949     44951     44950     44952     44954     44953     44955
     44957     44956     44958     44960     44959     44961     44963     44962     44964
     44966     44965     44967     44969     44968     44970     44972     44971     44973
     44975     44974     44976     44978     44977     44979     44981     44980     44982
     44984     44983     44985     44987     44986     44988     44990     44989     44991
     44993     44992     44994     44996     44995     44997     44999     44998     45000
     45002     45001     45003     45005     45004     45006     45008     45007     45009
     45011     45010     45012     45014     45013     45015     45017     45016     45018
     45020     45019     45021     45023     45022     45024     45026     45025     45027
     45029     45028     45030     45032     45031     45033     45035     45034     45036
     45038     45037     45039     45041     45040     45042     45044     45043     45045
     45047     45046     45048     45050     45049     45051     45053     45052     45054
     45056     45055     45057     45059     45058     45060     45062     45061     45063
     45065     45064     45066     45068     45067     45069     45071     45070     45072
     45074     45073     45075     45077     45076     45078     45080     45079     45081
     45083     45082     45084     45086     45085     45087     45089     45088     45090
     45092     45091     45093     45095     45094     45096     45098     45097     45099
     45101     45100     45102     45104     45103     45105     45107     45106     45108
     45110     45109     45111     45113     45112     45114     45116     45115     45117
     45119     45118     45120     45122     45121     45123     45125     45124     45126
     45128     45127     45129     45131     45130     45132     45134     45133     45135
     45137     45136     45138     45140     45139     45141     45143     45142     45144
     45146     45145     45147     45149     45148     45150     45152     45151     45153
     45155     45154     45156     45158     45157     45159     45161     45160     45162
     45164     45163     45165     45167     45166     45168     45170     45169     45171
     45173     45172     45174     45176     45175     45177     45179     45178     45180
     45182     45181     45183     45185     45184     45186     45188     45187     45189
     45191     45190     45192     45194     45193     45195     45197     45196     45198
     45200     45199     45201     45203     45202     45204     45206     45205     45207
     45209     45208     45210     45212     45211     45213     45215     45214     45216
     45218     45217     45219     45221     45220     45222     45224     45223     45225
     45227     45226     45228     45230     45229     45231     45233     45232     45234
     45236     45235     45237     45239     45238     45240     45242     45241     45243
     45245     45244     45246     45248     45247     45249     45251     45250     45252
     45254     45253     45255     45257     45256     45258     45260     45259     45261
     45263     45262     45264     45266     45265     45267     45269     45268     45270
     45272     45271     45273     45275     45274     45276     45278     45277     45279
     45281     45280     45282     45284     45283     45285     45287     45286     45288
     45290     45289     45291     45293     45292     45294     45296     45295     45297
     45299     45298     45300     45302     45301     45303     45305     45304     45306
     45308     45307     45309     45311     45310     45312     45314     45313     45315
     45317     45316     45318     45320     45319     45321     45323     45322     45324
     45326     45325     45327     45329     45328     45330     45332     45331     45333
     45335     45334     45336     45338     45337     45339     45341     45340     45342
     45344     45343     45345     45347     45346     45348     45350     45349     45351
     45353     45352     45354     45356     45355     45357     45359     45358     45360
     45362     45361     45363     45365     45364     45366     45368     45367     45369
     45371     45370     45372     45374     45373     45375     45377     45376     45378
     45380     45379     45381     45383     45382     45384     45386     45385     45387
     45389     45388     45390     45392     45391     45393     45395     45394     45396
     45398     45397     45399     45401     45400     45402     45404     45403     45405
     45407     45406     45408     45410     45409     45411     45413     45412     45414
     45416     45415     45417     45419     45418     45420     45422     45421     45423
     45425     45424     45426     45428     45427     45429     45431     45430     45432
     45434     45433     45435     45437     45436     45438     45440     45439     45441
     45443     45442     45444     45446     45445     45447     45449     45448     45450
     45452     45451     45453     45455     45454     45456     45458     45457     45459
     45461     45460     45462     45464     45463     45465     45467     45466     45468
     45470     45469     45471     45473     45472     45474     45476     45475     45477
     45479     45478     45480     45482     45481     45483     45485     45484     45486
     45488     45487     45489     45491     45490     45492     45494     45493     45495
     45497     45496     45498     45500     45499     45501     45503     45502     45504
     45506     45505     45507     45509     45508     45510     45512     45511     45513
     45515     45514     45516     45518     45517     45519     45521     45520     45522
     45524     45523     45525     45527     45526     45528     45530     45529     45531
     45533     45532     45534     45536     45535     45537     45539     45538     45540
     45542     45541     45543     45545     45544     45546     45548     45547     45549
     45551     45550     45552     45554     45553     45555     45557     45556     45558
     45560     45559     45561     45563     45562     45564     45566     45565     45567
     45569     45568     45570     45572     45571     45573     45575     45574     45576
     45578     45577     45579     45581     45580     45582     45584     45583     45585
     45587     45586     45588     45590     45589     45591     45593     45592     45594
     45596     45595     45597     45599     45598     45600     45602     45601     45603
     45605     45604     45606     45608     45607     45609     45611     45610     45612
     45614     45613     45615     45617     45616     45618     45620     45619     45621
     45623     45622     45624     45626     45625     45627     45629     45628     45630
     45632     45631     45633     45635     45634     45636     45638     45637     45639
     45641     45640     45642     45644     45643     45645     45647     45646     45648
     45650     45649     45651     45653     45652     45654     45656     45655     45657
     45659     45658     45660     45662     45661     45663     45665     45664     45666
     45668     45667     45669     45671     45670     45672     45674     45673     45675
     45677     45676     45678     45680     45679     45681     45683     45682     45684
     45686     45685     45687     45689     45688     45690     45692     45691     45693
     45695     45694     45696     45698     45697     45699     45701     45700     45702
     45704     45703     45705     45707     45706     45708     45710     45709     45711
     45713     45712     45714     45716     45715     45717     45719     45718     45720
     45722     45721     45723     45725     45724     45726     45728     45727     45729
     45731     45730     45732     45734     45733     45735     45737     45736     45738
     45740     45739     45741     45743     45742     45744     45746     45745     45747
     45749     45748     45750     45752     45751     45753     45755     45754     45756
     45758     45757     45759     45761     45760     45762     45764     45763     45765
     45767     45766     45768     45770     45769     45771     45773     45772     45774
     45776     45775     45777     45779     45778     45780     45782     45781     45783
     45785     45784     45786     45788     45787     45789     45791     45790     45792
     45794     45793     45795     45797     45796     45798     45800     45799     45801
     45803     45802     45804     45806     45805     45807     45809     45808     45810
     45812     45811     45813     45815     45814     45816     45818     45817     45819
     45821     45820     45822     45824     45823     45825     45827     45826     45828
     45830     45829     45831     45833     45832     45834     45836     45835     45837
     45839     45838     45840     45842     45841     45843     45845     45844     45846
     45848     45847     45849     45851     45850     45852     45854     45853     45855
     45857     45856     45858     45860     45859     45861     45863     45862     45864
     45866     45865     45867     45869     45868     45870     45872     45871     45873
     45875     45874     45876     45878     45877     45879     45881     45880     45882
     45884     45883     45885     45887     45886     45888     45890     45889     45891
     45893     45892     45894     45896     45895     45897     45899     45898     45900
     45902     45901     45903     45905     45904     45906     45908     45907     45909
     45911     45910     45912     45914     45913     45915     45917     45916     45918
     45920     45919     45921     45923     45922     45924     45926     45925     45927
     45929     45928     45930     45932     45931     45933     45935     45934     45936
     45938     45937     45939     45941     45940     45942     45944     45943     45945
     45947     45946     45948     45950     45949     45951     45953     45952     45954
     45956     45955     45957     45959     45958     45960     45962     45961     45963
     45965     45964     45966     45968     45967     45969     45971     45970     45972
     45974     45973     45975     45977     45976     45978     45980     45979     45981
     45983     45982     45984     45986     45985     45987     45989     45988     45990
     45992     45991     45993     45995     45994     45996     45998     45997     45999
     46001     46000     46002     46004     46003     46005     46007     46006     46008
     46010     46009     46011     46013     46012     46014     46016     46015     46017
     46019     46018     46020     46022     46021     46023     46025     46024     46026
     46028     46027     46029     46031     46030     46032     46034     46033     46035
     46037     46036     46038     46040     46039     46041     46043     46042     46044
     46046     46045     46047     46049     46048     46050     46052     46051     46053
     46055     46054     46056     46058     46057     46059     46061     46060     46062
     46064     46063     46065     46067     46066     46068     46070     46069     46071
     46073     46072     46074     46076     46075     46077     46079     46078     46080
     46082     46081     46083     46085     46084     46086     46088     46087     46089
     46091     46090     46092     46094     46093     46095     46097     46096     46098
     46100     46099     46101     46103     46102     46104     46106     46105     46107
     46109     46108     46110     46112     46111     46113     46115     46114     46116
     46118     46117     46119     46121     46120     46122     46124     46123     46125
     46127     46126     46128     46130     46129     46131     46133     46132     46134
     46136     46135     46137     46139     46138     46140     46142     46141     46143
     46145     46144     46146     46148     46147     46149     46151     46150     46152
     46154     46153     46155     46157     46156     46158     46160     46159     46161
     46163     46162     46164     46166     46165     46167     46169     46168     46170
     46172     46171     46173     46175     46174     46176     46178     46177     46179
     46181     46180     46182     46184     46183     46185     46187     46186     46188
     46190     46189     46191     46193     46192     46194     46196     46195     46197
     46199     46198     46200     46202     46201     46203     46205     46204     46206
     46208     46207     46209     46211     46210     46212     46214     46213     46215
     46217     46216     46218     46220     46219     46221     46223     46222     46224
     46226     46225     46227     46229     46228     46230     46232     46231     46233
     46235     46234     46236     46238     46237     46239     46241     46240     46242
     46244     46243     46245     46247     46246     46248     46250     46249     46251
     46253     46252     46254     46256     46255     46257     46259     46258     46260
     46262     46261     46263     46265     46264     46266     46268     46267     46269
     46271     46270     46272     46274     46273     46275     46277     46276     46278
     46280     46279     46281     46283     46282     46284     46286     46285     46287
     46289     46288     46290     46292     46291     46293     46295     46294     46296
     46298     46297     46299     46301     46300     46302     46304     46303     46305
     46307     46306     46308     46310     46309     46311     46313     46312     46314
     46316     46315     46317     46319     46318     46320     46322     46321     46323
     46325     46324     46326     46328     46327     46329     46331     46330     46332
     46334     46333     46335     46337     46336     46338     46340     46339     46341
     46343     46342     46344     46346     46345     46347     46349     46348     46350
     46352     46351     46353     46355     46354     46356     46358     46357     46359
     46361     46360     46362     46364     46363     46365     46367     46366     46368
     46370     46369     46371     46373     46372     46374     46376     46375     46377
     46379     46378     46380     46382     46381     46383     46385     46384     46386
     46388     46387     46389     46391     46390     46392     46394     46393     46395
     46397     46396     46398     46400     46399     46401     46403     46402     46404
     46406     46405     46407     46409     46408     46410     46412     46411     46413
     46415     46414     46416     46418     46417     46419     46421     46420     46422
     46424     46423     46425     46427     46426     46428     46430     46429     46431
     46433     46432     46434     46436     46435     46437     46439     46438     46440
     46442     46441     46443     46445     46444     46446     46448     46447     46449
     46451     46450     46452     46454     46453     46455     46457     46456     46458
     46460     46459     46461     46463     46462     46464     46466     46465     46467
     46469     46468     46470     46472     46471     46473     46475     46474     46476
     46478     46477     46479     46481     46480     46482     46484     46483     46485
     46487     46486     46488     46490     46489     46491     46493     46492     46494
     46496     46495     46497     46499     46498     46500     46502     46501     46503
     46505     46504     46506     46508     46507     46509     46511     46510     46512
     46514     46513     46515     46517     46516     46518     46520     46519     46521
     46523     46522     46524     46526     46525     46527     46529     46528     46530
     46532     46531     46533     46535     46534     46536     46538     46537     46539
     46541     46540     46542     46544     46543     46545     46547     46546     46548
     46550     46549     46551     46553     46552     46554     46556     46555     46557
     46559     46558     46560     46562     46561     46563     46565     46564     46566
     46568     46567     46569     46571     46570     46572     46574     46573     46575
     46577     46576     46578     46580     46579     46581     46583     46582     46584
     46586     46585     46587     46589     46588     46590     46592     46591     46593
     46595     46594     46596     46598     46597     46599     46601     46600     46602
     46604     46603     46605     46607     46606     46608     46610     46609     46611
     46613     46612     46614     46616     46615     46617     46619     46618     46620
     46622     46621     46623     46625     46624     46626     46628     46627     46629
     46631     46630     46632     46634     46633     46635     46637     46636     46638
     46640     46639     46641     46643     46642     46644     46646     46645     46647
     46649     46648     46650     46652     46651     46653     46655     46654     46656
     46658     46657     46659     46661     46660     46662     46664     46663     46665
     46667     46666     46668     46670     46669     46671     46673     46672     46674
     46676     46675     46677     46679     46678     46680     46682     46681     46683
     46685     46684     46686     46688     46687     46689     46691     46690     46692
     46694     46693     46695     46697     46696     46698     46700     46699     46701
     46703     46702     46704     46706     46705     46707     46709     46708     46710
     46712     46711     46713     46715     46714     46716     46718     46717     46719
     46721     46720     46722     46724     46723     46725     46727     46726     46728
     46730     46729     46731     46733     46732     46734     46736     46735     46737
     46739     46738     46740     46742     46741     46743     46745     46744     46746
     46748     46747     46749     46751     46750     46752     46754     46753     46755
     46757     46756     46758     46760     46759     46761     46763     46762     46764
     46766     46765     46767     46769     46768     46770     46772     46771     46773
     46775     46774     46776     46778     46777     46779     46781     46780     46782
     46784     46783     46785     46787     46786     46788     46790     46789     46791
     46793     46792     46794     46796     46795     46797     46799     46798     46800
     46802     46801     46803     46805     46804     46806     46808     46807     46809
     46811     46810     46812     46814     46813     46815     46817     46816     46818
     46820     46819     46821     46823     46822     46824     46826     46825     46827
     46829     46828     46830     46832     46831     46833     46835     46834     46836
     46838     46837     46839     46841     46840     46842     46844     46843     46845
     46847     46846     46848     46850     46849     46851     46853     46852     46854
     46856     46855     46857     46859     46858     46860     46862     46861     46863
     46865     46864     46866     46868     46867     46869     46871     46870     46872
     46874     46873     46875     46877     46876     46878     46880     46879     46881
     46883     46882     46884     46886     46885     46887     46889     46888     46890
     46892     46891     46893     46895     46894     46896     46898     46897     46899
     46901     46900     46902     46904     46903     46905     46907     46906     46908
     46910     46909     46911     46913     46912     46914     46916     46915     46917
     46919     46918     46920     46922     46921     46923     46925     46924     46926
     46928     46927     46929     46931     46930     46932     46934     46933     46935
     46937     46936     46938     46940     46939     46941     46943     46942     46944
     46946     46945     46947     46949     46948     46950     46952     46951     46953
     46955     46954     46956     46958     46957     46959     46961     46960     46962
     46964     46963     46965     46967     46966     46968     46970     46969     46971
     46973     46972     46974     46976     46975     46977     46979     46978     46980
     46982     46981     46983     46985     46984     46986     46988     46987     46989
     46991     46990     46992     46994     46993     46995     46997     46996     46998
     47000     46999     47001     47003     47002     47004     47006     47005     47007
     47009     47008     47010     47012     47011     47013     47015     47014     47016
     47018     47017     47019     47021     47020     47022     47024     47023     47025
     47027     47026     47028     47030     47029     47031     47033     47032     47034
     47036     47035     47037     47039     47038     47040     47042     47041     47043
     47045     47044     47046     47048     47047     47049     47051     47050     47052
     47054     47053     47055     47057     47056     47058     47060     47059     47061
     47063     47062     47064     47066     47065     47067     47069     47068     47070
     47072     47071     47073     47075     47074     47076     47078     47077     47079
     47081     47080     47082     47084     47083     47085     47087     47086     47088
     47090     47089     47091     47093     47092     47094     47096     47095     47097
     47099     47098     47100     47102     47101     47103     47105     47104     47106
     47108     47107     47109     47111     47110     47112     47114     47113     47115
     47117     47116     47118     47120     47119     47121     47123     47122     47124
     47126     47125     47127     47129     47128     47130     47132     47131     47133
     47135     47134     47136     47138     47137     47139     47141     47140     47142
     47144     47143     47145     47147     47146     47148     47150     47149     47151
     47153     47152     47154     47156     47155     47157     47159     47158     47160
     47162     47161     47163     47165     47164     47166     47168     47167     47169
     47171     47170     47172     47174     47173     47175     47177     47176     47178
     47180     47179     47181     47183     47182     47184     47186     47185     47187
     47189     47188     47190     47192     47191     47193     47195     47194     47196
     47198     47197     47199     47201     47200     47202     47204     47203     47205
     47207     47206     47208     47210     47209     47211     47213     47212     47214
     47216     47215     47217     47219     47218     47220     47222     47221     47223
     47225     47224     47226     47228     47227     47229     47231     47230     47232
     47234     47233     47235     47237     47236     47238     47240     47239     47241
     47243     47242     47244     47246     47245     47247     47249     47248     47250
     47252     47251     47253     47255     47254     47256     47258     47257     47259
     47261     47260     47262     47264     47263     47265     47267     47266     47268
     47270     47269     47271     47273     47272     47274     47276     47275     47277
     47279     47278     47280     47282     47281     47283     47285     47284     47286
     47288     47287     47289     47291     47290     47292     47294     47293     47295
     47297     47296     47298     47300     47299     47301     47303     47302     47304
     47306     47305     47307     47309     47308     47310     47312     47311     47313
     47315     47314     47316     47318     47317     47319     47321     47320     47322
     47324     47323     47325     47327     47326     47328     47330     47329     47331
     47333     47332     47334     47336     47335     47337     47339     47338     47340
     47342     47341     47343     47345     47344     47346     47348     47347     47349
     47351     47350     47352     47354     47353     47355     47357     47356     47358
     47360     47359     47361     47363     47362     47364     47366     47365     47367
     47369     47368     47370     47372     47371     47373     47375     47374     47376
     47378     47377     47379     47381     47380     47382     47384     47383     47385
     47387     47386     47388     47390     47389     47391     47393     47392     47394
     47396     47395     47397     47399     47398     47400     47402     47401     47403
     47405     47404     47406     47408     47407     47409     47411     47410     47412
     47414     47413     47415     47417     47416     47418     47420     47419     47421
     47423     47422     47424     47426     47425     47427     47429     47428     47430
     47432     47431     47433     47435     47434     47436     47438     47437     47439
     47441     47440     47442     47444     47443     47445     47447     47446     47448
     47450     47449     47451     47453     47452     47454     47456     47455     47457
     47459     47458     47460     47462     47461     47463     47465     47464     47466
     47468     47467     47469     47471     47470     47472     47474     47473     47475
     47477     47476     47478     47480     47479     47481     47483     47482     47484
     47486     47485     47487     47489     47488     47490     47492     47491     47493
     47495     47494     47496     47498     47497     47499     47501     47500     47502
     47504     47503     47505     47507     47506     47508     47510     47509     47511
     47513     47512     47514     47516     47515     47517     47519     47518     47520
     47522     47521     47523     47525     47524     47526     47528     47527     47529
     47531     47530     47532     47534     47533     47535     47537     47536     47538
     47540     47539     47541     47543     47542     47544     47546     47545     47547
     47549     47548     47550     47552     47551     47553     47555     47554     47556
     47558     47557     47559     47561     47560     47562     47564     47563     47565
     47567     47566     47568     47570     47569     47571     47573     47572     47574
     47576     47575     47577     47579     47578     47580     47582     47581     47583
     47585     47584     47586     47588     47587     47589     47591     47590     47592
     47594     47593     47595     47597     47596     47598     47600     47599     47601
     47603     47602     47604     47606     47605     47607     47609     47608     47610
     47612     47611     47613     47615     47614     47616     47618     47617     47619
     47621     47620     47622     47624     47623     47625     47627     47626     47628
     47630     47629     47631     47633     47632     47634     47636     47635     47637
     47639     47638     47640     47642     47641     47643     47645     47644     47646
     47648     47647     47649     47651     47650     47652     47654     47653     47655
     47657     47656     47658     47660     47659     47661     47663     47662     47664
     47666     47665     47667     47669     47668     47670     47672     47671     47673
     47675     47674     47676     47678     47677     47679     47681     47680     47682
     47684     47683     47685     47687     47686     47688     47690     47689     47691
     47693     47692     47694     47696     47695     47697     47699     47698     47700
     47702     47701     47703     47705     47704     47706     47708     47707     47709
     47711     47710     47712     47714     47713     47715     47717     47716     47718
     47720     47719     47721     47723     47722     47724     47726     47725     47727
     47729     47728     47730     47732     47731     47733     47735     47734     47736
     47738     47737     47739     47741     47740     47742     47744     47743     47745
     47747     47746     47748     47750     47749     47751     47753     47752     47754
     47756     47755     47757     47759     47758     47760     47762     47761     47763
     47765     47764     47766     47768     47767     47769     47771     47770     47772
     47774     47773     47775     47777     47776     47778     47780     47779     47781
     47783     47782     47784     47786     47785     47787     47789     47788     47790
     47792     47791     47793     47795     47794     47796     47798     47797     47799
     47801     47800     47802     47804     47803     47805     47807     47806     47808
     47810     47809     47811     47813     47812     47814     47816     47815     47817
     47819     47818     47820     47822     47821     47823     47825     47824     47826
     47828     47827     47829     47831     47830     47832     47834     47833     47835
     47837     47836     47838     47840     47839     47841     47843     47842     47844
     47846     47845     47847     47849     47848     47850     47852     47851     47853
     47855     47854     47856     47858     47857     47859     47861     47860     47862
     47864     47863     47865     47867     47866     47868     47870     47869     47871
     47873     47872     47874     47876     47875     47877     47879     47878     47880
     47882     47881     47883     47885     47884     47886     47888     47887     47889
     47891     47890     47892     47894     47893     47895     47897     47896     47898
     47900     47899     47901     47903     47902     47904     47906     47905     47907
     47909     47908     47910     47912     47911     47913     47915     47914     47916
     47918     47917     47919     47921     47920     47922     47924     47923     47925
     47927     47926     47928     47930     47929     47931     47933     47932     47934
     47936     47935     47937     47939     47938     47940     47942     47941     47943
     47945     47944     47946     47948     47947     47949     47951     47950     47952
     47954     47953     47955     47957     47956     47958     47960     47959     47961
     47963     47962     47964     47966     47965     47967     47969     47968     47970
     47972     47971     47973     47975     47974     47976     47978     47977     47979
     47981     47980     47982     47984     47983     47985     47987     47986     47988
     47990     47989     47991     47993     47992     47994     47996     47995     47997
     47999     47998     48000     48002     48001     48003     48005     48004     48006
     48008     48007     48009     48011     48010     48012     48014     48013     48015
     48017     48016     48018     48020     48019     48021     48023     48022     48024
     48026     48025     48027     48029     48028     48030     48032     48031     48033
     48035     48034     48036     48038     48037     48039     48041     48040     48042
     48044     48043     48045     48047     48046     48048     48050     48049     48051
     48053     48052     48054     48056     48055     48057     48059     48058     48060
     48062     48061     48063     48065     48064     48066     48068     48067     48069
     48071     48070     48072     48074     48073     48075     48077     48076     48078
     48080     48079     48081     48083     48082     48084     48086     48085     48087
     48089     48088     48090     48092     48091     48093     48095     48094     48096
     48098     48097     48099     48101     48100     48102     48104     48103     48105
     48107     48106     48108     48110     48109     48111     48113     48112     48114
     48116     48115     48117     48119     48118     48120     48122     48121     48123
     48125     48124     48126     48128     48127     48129     48131     48130     48132
     48134     48133     48135     48137     48136     48138     48140     48139     48141
     48143     48142     48144     48146     48145     48147     48149     48148     48150
     48152     48151     48153     48155     48154     48156     48158     48157     48159
     48161     48160     48162     48164     48163     48165     48167     48166     48168
     48170     48169     48171     48173     48172     48174     48176     48175     48177
     48179     48178     48180     48182     48181     48183     48185     48184     48186
     48188     48187     48189     48191     48190     48192     48194     48193     48195
     48197     48196     48198     48200     48199     48201     48203     48202     48204
     48206     48205     48207     48209     48208     48210     48212     48211     48213
     48215     48214     48216     48218     48217     48219     48221     48220     48222
     48224     48223     48225     48227     48226     48228     48230     48229     48231
     48233     48232     48234     48236     48235     48237     48239     48238     48240
     48242     48241     48243     48245     48244     48246     48248     48247     48249
     48251     48250     48252     48254     48253     48255     48257     48256     48258
     48260     48259     48261     48263     48262     48264     48266     48265     48267
     48269     48268     48270     48272     48271     48273     48275     48274     48276
     48278     48277     48279     48281     48280     48282     48284     48283     48285
     48287     48286     48288     48290     48289     48291     48293     48292     48294
     48296     48295     48297     48299     48298     48300     48302     48301     48303
     48305     48304     48306     48308     48307     48309     48311     48310     48312
     48314     48313     48315     48317     48316     48318     48320     48319     48321
     48323     48322     48324     48326     48325     48327     48329     48328     48330
     48332     48331     48333     48335     48334     48336     48338     48337     48339
     48341     48340     48342     48344     48343     48345     48347     48346     48348
     48350     48349     48351     48353     48352     48354     48356     48355     48357
     48359     48358     48360     48362     48361     48363     48365     48364     48366
     48368     48367     48369     48371     48370     48372     48374     48373     48375
     48377     48376     48378     48380     48379     48381     48383     48382     48384
     48386     48385     48387     48389     48388     48390     48392     48391     48393
     48395     48394     48396     48398     48397     48399     48401     48400     48402
     48404     48403     48405     48407     48406     48408     48410     48409     48411
     48413     48412     48414     48416     48415     48417     48419     48418     48420
     48422     48421     48423     48425     48424     48426     48428     48427     48429
     48431     48430     48432     48434     48433     48435     48437     48436     48438
     48440     48439     48441     48443     48442     48444     48446     48445     48447
     48449     48448     48450     48452     48451     48453     48455     48454     48456
     48458     48457     48459     48461     48460     48462     48464     48463     48465
     48467     48466     48468     48470     48469     48471     48473     48472     48474
     48476     48475     48477     48479     48478     48480     48482     48481     48483
     48485     48484     48486     48488     48487     48489     48491     48490     48492
     48494     48493     48495     48497     48496     48498     48500     48499     48501
     48503     48502     48504     48506     48505     48507     48509     48508     48510
     48512     48511     48513     48515     48514     48516     48518     48517     48519
     48521     48520     48522     48524     48523     48525     48527     48526     48528
     48530     48529     48531     48533     48532     48534     48536     48535     48537
     48539     48538     48540     48542     48541     48543     48545     48544     48546
     48548     48547     48549     48551     48550     48552     48554     48553     48555
     48557     48556     48558     48560     48559     48561     48563     48562     48564
     48566     48565     48567     48569     48568     48570     48572     48571     48573
     48575     48574     48576     48578     48577     48579     48581     48580     48582
     48584     48583     48585     48587     48586     48588     48590     48589     48591
     48593     48592     48594     48596     48595     48597     48599     48598     48600
     48602     48601     48603     48605     48604     48606     48608     48607     48609
     48611     48610     48612     48614     48613     48615     48617     48616     48618
     48620     48619     48621     48623     48622     48624     48626     48625     48627
     48629     48628     48630     48632     48631     48633     48635     48634     48636
     48638     48637     48639     48641     48640     48642     48644     48643     48645
     48647     48646     48648     48650     48649     48651     48653     48652     48654
     48656     48655     48657     48659     48658     48660     48662     48661     48663
     48665     48664     48666     48668     48667     48669     48671     48670     48672
     48674     48673     48675     48677     48676     48678     48680     48679     48681
     48683     48682     48684     48686     48685     48687     48689     48688     48690
     48692     48691     48693     48695     48694     48696     48698     48697     48699
     48701     48700     48702     48704     48703     48705     48707     48706     48708
     48710     48709     48711     48713     48712     48714     48716     48715     48717
     48719     48718     48720     48722     48721     48723     48725     48724     48726
     48728     48727     48729     48731     48730     48732     48734     48733     48735
     48737     48736     48738     48740     48739     48741     48743     48742     48744
     48746     48745     48747     48749     48748     48750     48752     48751     48753
     48755     48754     48756     48758     48757     48759     48761     48760     48762
     48764     48763     48765     48767     48766     48768     48770     48769     48771
     48773     48772     48774     48776     48775     48777     48779     48778     48780
     48782     48781     48783     48785     48784     48786     48788     48787     48789
     48791     48790     48792     48794     48793     48795     48797     48796     48798
     48800     48799     48801     48803     48802     48804     48806     48805     48807
     48809     48808     48810     48812     48811     48813     48815     48814     48816
     48818     48817     48819     48821     48820     48822     48824     48823     48825
     48827     48826     48828     48830     48829     48831     48833     48832     48834
     48836     48835     48837     48839     48838     48840     48842     48841     48843
     48845     48844     48846     48848     48847     48849     48851     48850     48852
     48854     48853     48855     48857     48856     48858     48860     48859     48861
     48863     48862     48864     48866     48865     48867     48869     48868     48870
     48872     48871     48873     48875     48874     48876     48878     48877     48879
     48881     48880     48882     48884     48883     48885     48887     48886     48888
     48890     48889     48891     48893     48892     48894     48896     48895     48897
     48899     48898     48900     48902     48901     48903     48905     48904     48906
     48908     48907     48909     48911     48910     48912     48914     48913     48915
     48917     48916     48918     48920     48919     48921     48923     48922     48924
     48926     48925     48927     48929     48928     48930     48932     48931     48933
     48935     48934     48936     48938     48937     48939     48941     48940     48942
     48944     48943     48945     48947     48946     48948     48950     48949     48951
     48953     48952     48954     48956     48955     48957     48959     48958     48960
     48962     48961     48963     48965     48964     48966     48968     48967     48969
     48971     48970     48972     48974     48973     48975     48977     48976     48978
     48980     48979     48981     48983     48982     48984     48986     48985     48987
     48989     48988     48990     48992     48991     48993     48995     48994     48996
     48998     48997     48999     49001     49000     49002     49004     49003     49005
     49007     49006     49008     49010     49009     49011     49013     49012     49014
     49016     49015     49017     49019     49018     49020     49022     49021     49023
     49025     49024     49026     49028     49027     49029     49031     49030     49032
     49034     49033     49035     49037     49036     49038     49040     49039     49041
     49043     49042     49044     49046     49045     49047     49049     49048     49050
     49052     49051     49053     49055     49054     49056     49058     49057     49059
     49061     49060     49062     49064     49063     49065     49067     49066     49068
     49070     49069     49071     49073     49072     49074     49076     49075     49077
     49079     49078     49080     49082     49081     49083     49085     49084     49086
     49088     49087     49089     49091     49090     49092     49094     49093     49095
     49097     49096     49098     49100     49099     49101     49103     49102     49104
     49106     49105     49107     49109     49108     49110     49112     49111     49113
     49115     49114     49116     49118     49117     49119     49121     49120     49122
     49124     49123     49125     49127     49126     49128     49130     49129     49131
     49133     49132     49134     49136     49135     49137     49139     49138     49140
     49142     49141     49143     49145     49144     49146     49148     49147     49149
     49151     49150     49152     49154     49153     49155     49157     49156     49158
     49160     49159     49161     49163     49162     49164     49166     49165     49167
     49169     49168     49170     49172     49171     49173     49175     49174     49176
     49178     49177     49179     49181     49180     49182     49184     49183     49185
     49187     49186     49188     49190     49189     49191     49193     49192     49194
     49196     49195     49197     49199     49198     49200     49202     49201     49203
     49205     49204     49206     49208     49207     49209     49211     49210     49212
     49214     49213     49215     49217     49216     49218     49220     49219     49221
     49223     49222     49224     49226     49225     49227     49229     49228     49230
     49232     49231     49233     49235     49234     49236     49238     49237     49239
     49241     49240     49242     49244     49243     49245     49247     49246     49248
     49250     49249     49251     49253     49252     49254     49256     49255     49257
     49259     49258     49260     49262     49261     49263     49265     49264     49266
     49268     49267     49269     49271     49270     49272     49274     49273     49275
     49277     49276     49278     49280     49279     49281     49283     49282     49284
     49286     49285     49287     49289     49288     49290     49292     49291     49293
     49295     49294     49296     49298     49297     49299     49301     49300     49302
     49304     49303     49305     49307     49306     49308     49310     49309     49311
     49313     49312     49314     49316     49315     49317     49319     49318     49320
     49322     49321     49323     49325     49324     49326     49328     49327     49329
     49331     49330     49332     49334     49333     49335     49337     49336     49338
     49340     49339     49341     49343     49342     49344     49346     49345     49347
     49349     49348     49350     49352     49351     49353     49355     49354     49356
     49358     49357     49359     49361     49360     49362     49364     49363     49365
     49367     49366     49368     49370     49369     49371     49373     49372     49374
     49376     49375     49377     49379     49378     49380     49382     49381     49383
     49385     49384     49386     49388     49387     49389     49391     49390     49392
     49394     49393     49395     49397     49396     49398     49400     49399     49401
     49403     49402     49404     49406     49405     49407     49409     49408     49410
     49412     49411     49413     49415     49414     49416     49418     49417     49419
     49421     49420     49422     49424     49423     49425     49427     49426     49428
     49430     49429     49431     49433     49432     49434     49436     49435     49437
     49439     49438     49440     49442     49441     49443     49445     49444     49446
     49448     49447     49449     49451     49450     49452     49454     49453     49455
     49457     49456     49458     49460     49459     49461     49463     49462     49464
     49466     49465     49467     49469     49468     49470     49472     49471     49473
     49475     49474     49476     49478     49477     49479     49481     49480     49482
     49484     49483     49485     49487     49486     49488     49490     49489     49491
     49493     49492     49494     49496     49495     49497     49499     49498     49500
     49502     49501     49503     49505     49504     49506     49508     49507     49509
     49511     49510     49512     49514     49513     49515     49517     49516     49518
     49520     49519     49521     49523     49522     49524     49526     49525     49527
     49529     49528     49530     49532     49531     49533     49535     49534     49536
     49538     49537     49539     49541     49540     49542     49544     49543     49545
     49547     49546     49548     49550     49549     49551     49553     49552     49554
     49556     49555     49557     49559     49558     49560     49562     49561     49563
     49565     49564     49566     49568     49567     49569     49571     49570     49572
     49574     49573     49575     49577     49576     49578     49580     49579     49581
     49583     49582     49584     49586     49585     49587     49589     49588     49590
     49592     49591     49593     49595     49594     49596     49598     49597     49599
     49601     49600     49602     49604     49603     49605     49607     49606     49608
     49610     49609     49611     49613     49612     49614     49616     49615     49617
     49619     49618     49620     49622     49621     49623     49625     49624     49626
     49628     49627     49629     49631     49630     49632     49634     49633     49635
     49637     49636     49638     49640     49639     49641     49643     49642     49644
     49646     49645     49647     49649     49648     49650     49652     49651     49653
     49655     49654     49656     49658     49657     49659     49661     49660     49662
     49664     49663     49665     49667     49666     49668     49670     49669     49671
     49673     49672     49674     49676     49675     49677     49679     49678     49680
     49682     49681     49683     49685     49684     49686     49688     49687     49689
     49691     49690     49692     49694     49693     49695     49697     49696     49698
     49700     49699     49701     49703     49702     49704     49706     49705     49707
     49709     49708     49710     49712     49711     49713     49715     49714     49716
     49718     49717     49719     49721     49720     49722     49724     49723     49725
     49727     49726     49728     49730     49729     49731     49733     49732     49734
     49736     49735     49737     49739     49738     49740     49742     49741     49743
     49745     49744     49746     49748     49747     49749     49751     49750     49752
     49754     49753     49755     49757     49756     49758     49760     49759     49761
     49763     49762     49764     49766     49765     49767     49769     49768     49770
     49772     49771     49773     49775     49774     49776     49778     49777     49779
     49781     49780     49782     49784     49783     49785     49787     49786     49788
     49790     49789     49791     49793     49792     49794     49796     49795     49797
     49799     49798     49800     49802     49801     49803     49805     49804     49806
     49808     49807     49809     49811     49810     49812     49814     49813     49815
     49817     49816     49818     49820     49819     49821     49823     49822     49824
     49826     49825     49827     49829     49828     49830     49832     49831     49833
     49835     49834     49836     49838     49837     49839     49841     49840     49842
     49844     49843     49845     49847     49846     49848     49850     49849     49851
     49853     49852     49854     49856     49855     49857     49859     49858     49860
     49862     49861     49863     49865     49864     49866     49868     49867     49869
     49871     49870     49872     49874     49873     49875     49877     49876     49878
     49880     49879     49881     49883     49882     49884     49886     49885     49887
     49889     49888     49890     49892     49891     49893     49895     49894     49896
     49898     49897     49899     49901     49900     49902     49904     49903     49905
     49907     49906     49908     49910     49909     49911     49913     49912     49914
     49916     49915     49917     49919     49918     49920     49922     49921     49923
     49925     49924     49926     49928     49927     49929     49931     49930     49932
     49934     49933     49935     49937     49936     49938     49940     49939     49941
     49943     49942     49944     49946     49945     49947     49949     49948     49950
     49952     49951     49953     49955     49954     49956     49958     49957     49959
     49961     49960     49962     49964     49963     49965     49967     49966     49968
     49970     49969     49971     49973     49972     49974     49976     49975     49977
     49979     49978     49980     49982     49981     49983     49985     49984     49986
     49988     49987     49989     49991     49990     49992     49994     49993     49995
     49997     49996     49998     50000     49999     50001     50003     50002     50004
     50006     50005     50007     50009     50008     50010     50012     50011     50013
     50015     50014     50016     50018     50017     50019     50021     50020     50022
     50024     50023     50025     50027     50026     50028     50030     50029     50031
     50033     50032     50034     50036     50035     50037     50039     50038     50040
     50042     50041     50043     50045     50044     50046     50048     50047     50049
     50051     50050     50052     50054     50053     50055     50057     50056     50058
     50060     50059     50061     50063     50062     50064     50066     50065     50067
     50069     50068     50070     50072     50071     50073     50075     50074     50076
     50078     50077     50079     50081     50080     50082     50084     50083     50085
     50087     50086     50088     50090     50089     50091     50093     50092     50094
     50096     50095     50097     50099     50098     50100     50102     50101     50103
     50105     50104     50106     50108     50107     50109     50111     50110     50112
     50114     50113     50115     50117     50116     50118     50120     50119     50121
     50123     50122     50124     50126     50125     50127     50129     50128     50130
     50132     50131     50133     50135     50134     50136     50138     50137     50139
     50141     50140     50142     50144     50143     50145     50147     50146     50148
     50150     50149     50151     50153     50152     50154     50156     50155     50157
     50159     50158     50160     50162     50161     50163     50165     50164     50166
     50168     50167     50169     50171     50170     50172     50174     50173     50175
     50177     50176     50178     50180     50179     50181     50183     50182     50184
     50186     50185     50187     50189     50188     50190     50192     50191     50193
     50195     50194     50196     50198     50197     50199     50201     50200     50202
     50204     50203     50205     50207     50206     50208     50210     50209     50211
     50213     50212     50214     50216     50215     50217     50219     50218     50220
     50222     50221     50223     50225     50224     50226     50228     50227     50229
     50231     50230     50232     50234     50233     50235     50237     50236     50238
     50240     50239     50241     50243     50242     50244     50246     50245     50247
     50249     50248     50250     50252     50251     50253     50255     50254     50256
     50258     50257     50259     50261     50260     50262     50264     50263     50265
     50267     50266     50268     50270     50269     50271     50273     50272     50274
     50276     50275     50277     50279     50278     50280     50282     50281     50283
     50285     50284     50286     50288     50287     50289     50291     50290     50292
     50294     50293     50295     50297     50296     50298     50300     50299     50301
     50303     50302     50304     50306     50305     50307     50309     50308     50310
     50312     50311     50313     50315     50314     50316     50318     50317     50319
     50321     50320     50322     50324     50323     50325     50327     50326     50328
     50330     50329     50331     50333     50332     50334     50336     50335     50337
     50339     50338     50340     50342     50341     50343     50345     50344     50346
     50348     50347     50349     50351     50350     50352     50354     50353     50355
     50357     50356     50358     50360     50359     50361     50363     50362     50364
     50366     50365     50367     50369     50368     50370     50372     50371     50373
     50375     50374     50376     50378     50377     50379     50381     50380     50382
     50384     50383     50385     50387     50386     50388     50390     50389     50391
     50393     50392     50394     50396     50395     50397     50399     50398     50400
     50402     50401     50403     50405     50404     50406     50408     50407     50409
     50411     50410     50412     50414     50413     50415     50417     50416     50418
     50420     50419     50421     50423     50422     50424     50426     50425     50427
     50429     50428     50430     50432     50431     50433     50435     50434     50436
     50438     50437     50439     50441     50440     50442     50444     50443     50445
     50447     50446     50448     50450     50449     50451     50453     50452     50454
     50456     50455     50457     50459     50458     50460     50462     50461     50463
     50465     50464     50466     50468     50467     50469     50471     50470     50472
     50474     50473     50475     50477     50476     50478     50480     50479     50481
     50483     50482     50484     50486     50485     50487     50489     50488     50490
     50492     50491     50493     50495     50494     50496     50498     50497     50499
     50501     50500     50502     50504     50503     50505     50507     50506     50508
     50510     50509     50511     50513     50512     50514     50516     50515     50517
     50519     50518     50520     50522     50521     50523     50525     50524     50526
     50528     50527     50529     50531     50530     50532     50534     50533     50535
     50537     50536     50538     50540     50539     50541     50543     50542     50544
     50546     50545     50547     50549     50548     50550     50552     50551     50553
     50555     50554     50556     50558     50557     50559     50561     50560     50562
     50564     50563     50565     50567     50566     50568     50570     50569     50571
     50573     50572     50574     50576     50575     50577     50579     50578     50580
     50582     50581     50583     50585     50584     50586     50588     50587     50589
     50591     50590     50592     50594     50593     50595     50597     50596     50598
     50600     50599     50601     50603     50602     50604     50606     50605     50607
     50609     50608     50610     50612     50611     50613     50615     50614     50616
     50618     50617     50619     50621     50620     50622     50624     50623     50625
     50627     50626     50628     50630     50629     50631     50633     50632     50634
     50636     50635     50637     50639     50638     50640     50642     50641     50643
     50645     50644     50646     50648     50647     50649     50651     50650     50652
     50654     50653     50655     50657     50656     50658     50660     50659     50661
     50663     50662     50664     50666     50665     50667     50669     50668     50670
     50672     50671     50673     50675     50674     50676     50678     50677     50679
     50681     50680     50682     50684     50683     50685     50687     50686     50688
     50690     50689     50691     50693     50692     50694     50696     50695     50697
     50699     50698     50700     50702     50701     50703     50705     50704     50706
     50708     50707     50709     50711     50710     50712     50714     50713     50715
     50717     50716     50718     50720     50719     50721     50723     50722     50724
     50726     50725     50727     50729     50728     50730     50732     50731     50733
     50735     50734     50736     50738     50737     50739     50741     50740     50742
     50744     50743     50745     50747     50746     50748     50750     50749     50751
     50753     50752     50754     50756     50755     50757     50759     50758     50760
     50762     50761     50763     50765     50764     50766     50768     50767     50769
     50771     50770     50772     50774     50773     50775     50777     50776     50778
     50780     50779     50781     50783     50782     50784     50786     50785     50787
     50789     50788     50790     50792     50791     50793     50795     50794     50796
     50798     50797     50799     50801     50800     50802     50804     50803     50805
     50807     50806     50808     50810     50809     50811     50813     50812     50814
     50816     50815     50817     50819     50818     50820     50822     50821     50823
     50825     50824     50826     50828     50827     50829     50831     50830     50832
     50834     50833     50835     50837     50836     50838     50840     50839     50841
     50843     50842     50844     50846     50845     50847     50849     50848     50850
     50852     50851     50853     50855     50854     50856     50858     50857     50859
     50861     50860     50862     50864     50863     50865     50867     50866     50868
     50870     50869     50871     50873     50872     50874     50876     50875     50877
     50879     50878     50880     50882     50881     50883     50885     50884     50886
     50888     50887     50889     50891     50890     50892     50894     50893     50895
     50897     50896     50898     50900     50899     50901     50903     50902     50904
     50906     50905     50907     50909     50908     50910     50912     50911     50913
     50915     50914     50916     50918     50917     50919     50921     50920     50922
     50924     50923     50925     50927     50926     50928     50930     50929     50931
     50933     50932     50934     50936     50935     50937     50939     50938     50940
     50942     50941     50943     50945     50944     50946     50948     50947     50949
     50951     50950     50952     50954     50953     50955     50957     50956     50958
     50960     50959     50961     50963     50962     50964     50966     50965     50967
     50969     50968     50970     50972     50971     50973     50975     50974     50976
     50978     50977     50979     50981     50980     50982     50984     50983     50985
     50987     50986     50988     50990     50989     50991     50993     50992     50994
     50996     50995     50997     50999     50998     51000     51002     51001     51003
     51005     51004     51006     51008     51007     51009     51011     51010     51012
     51014     51013     51015     51017     51016     51018     51020     51019     51021
     51023     51022     51024     51026     51025     51027     51029     51028     51030
     51032     51031     51033     51035     51034     51036     51038     51037     51039
     51041     51040     51042     51044     51043     51045     51047     51046     51048
     51050     51049     51051     51053     51052     51054     51056     51055     51057
     51059     51058     51060     51062     51061     51063     51065     51064     51066
     51068     51067     51069     51071     51070     51072     51074     51073     51075
     51077     51076     51078     51080     51079     51081     51083     51082     51084
     51086     51085     51087     51089     51088     51090     51092     51091     51093
     51095     51094     51096     51098     51097     51099     51101     51100     51102
     51104     51103     51105     51107     51106     51108     51110     51109     51111
     51113     51112     51114     51116     51115     51117     51119     51118     51120
     51122     51121     51123     51125     51124     51126     51128     51127     51129
     51131     51130     51132     51134     51133     51135     51137     51136     51138
     51140     51139     51141     51143     51142     51144     51146     51145     51147
     51149     51148     51150     51152     51151     51153     51155     51154     51156
     51158     51157     51159     51161     51160     51162     51164     51163     51165
     51167     51166     51168     51170     51169     51171     51173     51172     51174
     51176     51175     51177     51179     51178     51180     51182     51181     51183
     51185     51184     51186     51188     51187     51189     51191     51190     51192
     51194     51193     51195     51197     51196     51198     51200     51199     51201
     51203     51202     51204     51206     51205     51207     51209     51208     51210
     51212     51211     51213     51215     51214     51216     51218     51217     51219
     51221     51220     51222     51224     51223     51225     51227     51226     51228
     51230     51229     51231     51233     51232     51234     51236     51235     51237
     51239     51238     51240     51242     51241     51243     51245     51244     51246
     51248     51247     51249     51251     51250     51252     51254     51253     51255
     51257     51256     51258     51260     51259     51261     51263     51262     51264
     51266     51265     51267     51269     51268     51270     51272     51271     51273
     51275     51274     51276     51278     51277     51279     51281     51280     51282
     51284     51283     51285     51287     51286     51288     51290     51289     51291
     51293     51292     51294     51296     51295     51297     51299     51298     51300
     51302     51301     51303     51305     51304     51306     51308     51307     51309
     51311     51310     51312     51314     51313     51315     51317     51316     51318
     51320     51319     51321     51323     51322     51324     51326     51325     51327
     51329     51328     51330     51332     51331     51333     51335     51334     51336
     51338     51337     51339     51341     51340     51342     51344     51343     51345
     51347     51346     51348     51350     51349     51351     51353     51352     51354
     51356     51355     51357     51359     51358     51360     51362     51361     51363
     51365     51364     51366     51368     51367     51369     51371     51370     51372
     51374     51373     51375     51377     51376     51378     51380     51379     51381
     51383     51382     51384     51386     51385     51387     51389     51388     51390
     51392     51391     51393     51395     51394     51396     51398     51397     51399
     51401     51400     51402     51404     51403     51405     51407     51406     51408
     51410     51409     51411     51413     51412     51414     51416     51415     51417
     51419     51418     51420     51422     51421     51423     51425     51424     51426
     51428     51427     51429     51431     51430     51432     51434     51433     51435
     51437     51436     51438     51440     51439     51441     51443     51442     51444
     51446     51445     51447     51449     51448     51450     51452     51451     51453
     51455     51454     51456     51458     51457     51459     51461     51460     51462
     51464     51463     51465     51467     51466     51468     51470     51469     51471
     51473     51472     51474     51476     51475     51477     51479     51478     51480
     51482     51481     51483     51485     51484     51486     51488     51487     51489
     51491     51490     51492     51494     51493     51495     51497     51496     51498
     51500     51499     51501     51503     51502     51504     51506     51505     51507
     51509     51508     51510     51512     51511     51513     51515     51514     51516
     51518     51517     51519     51521     51520     51522     51524     51523     51525
     51527     51526     51528     51530     51529     51531     51533     51532     51534
     51536     51535     51537     51539     51538     51540     51542     51541     51543
     51545     51544     51546     51548     51547     51549     51551     51550     51552
     51554     51553     51555     51557     51556     51558     51560     51559     51561
     51563     51562     51564     51566     51565     51567     51569     51568     51570
     51572     51571     51573     51575     51574     51576     51578     51577     51579
     51581     51580     51582     51584     51583     51585     51587     51586     51588
     51590     51589     51591     51593     51592     51594     51596     51595     51597
     51599     51598     51600     51602     51601     51603     51605     51604     51606
     51608     51607     51609     51611     51610     51612     51614     51613     51615
     51617     51616     51618     51620     51619     51621     51623     51622     51624
     51626     51625     51627     51629     51628     51630     51632     51631     51633
     51635     51634     51636     51638     51637     51639     51641     51640     51642
     51644     51643     51645     51647     51646     51648     51650     51649     51651
     51653     51652     51654     51656     51655     51657     51659     51658     51660
     51662     51661     51663     51665     51664     51666     51668     51667     51669
     51671     51670     51672     51674     51673     51675     51677     51676     51678
     51680     51679     51681     51683     51682     51684     51686     51685     51687
     51689     51688     51690     51692     51691     51693     51695     51694     51696
     51698     51697     51699     51701     51700     51702     51704     51703     51705
     51707     51706     51708     51710     51709     51711     51713     51712     51714
     51716     51715     51717     51719     51718     51720     51722     51721     51723
     51725     51724     51726     51728     51727     51729     51731     51730     51732
     51734     51733     51735     51737     51736     51738     51740     51739     51741
     51743     51742     51744     51746     51745     51747     51749     51748     51750
     51752     51751     51753     51755     51754     51756     51758     51757     51759
     51761     51760     51762     51764     51763     51765     51767     51766     51768
     51770     51769     51771     51773     51772     51774     51776     51775     51777
     51779     51778     51780     51782     51781     51783     51785     51784     51786
     51788     51787     51789     51791     51790     51792     51794     51793     51795
     51797     51796     51798     51800     51799     51801     51803     51802     51804
     51806     51805     51807     51809     51808     51810     51812     51811     51813
     51815     51814     51816     51818     51817     51819     51821     51820     51822
     51824     51823     51825     51827     51826     51828     51830     51829     51831
     51833     51832     51834     51836     51835     51837     51839     51838     51840
     51842     51841     51843     51845     51844     51846     51848     51847     51849
     51851     51850     51852     51854     51853     51855     51857     51856     51858
     51860     51859     51861     51863     51862     51864     51866     51865     51867
     51869     51868     51870     51872     51871     51873     51875     51874     51876
     51878     51877     51879     51881     51880     51882     51884     51883     51885
     51887     51886     51888     51890     51889     51891     51893     51892     51894
     51896     51895     51897     51899     51898     51900     51902     51901     51903
     51905     51904     51906     51908     51907     51909     51911     51910     51912
     51914     51913     51915     51917     51916     51918     51920     51919     51921
     51923     51922     51924     51926     51925     51927     51929     51928     51930
     51932     51931     51933     51935     51934     51936     51938     51937     51939
     51941     51940     51942     51944     51943     51945     51947     51946     51948
     51950     51949     51951     51953     51952     51954     51956     51955     51957
     51959     51958     51960     51962     51961     51963     51965     51964     51966
     51968     51967     51969     51971     51970     51972     51974     51973     51975
     51977     51976     51978     51980     51979     51981     51983     51982     51984
     51986     51985     51987     51989     51988     51990     51992     51991     51993
     51995     51994     51996     51998     51997     51999     52001     52000     52002
     52004     52003     52005     52007     52006     52008     52010     52009     52011
     52013     52012     52014     52016     52015     52017     52019     52018     52020
     52022     52021     52023     52025     52024     52026     52028     52027     52029
     52031     52030     52032     52034     52033     52035     52037     52036     52038
     52040     52039     52041     52043     52042     52044     52046     52045     52047
     52049     52048     52050     52052     52051     52053     52055     52054     52056
     52058     52057     52059     52061     52060     52062     52064     52063     52065
     52067     52066     52068     52070     52069     52071     52073     52072     52074
     52076     52075     52077     52079     52078     52080     52082     52081     52083
     52085     52084     52086     52088     52087     52089     52091     52090     52092
     52094     52093     52095     52097     52096     52098     52100     52099     52101
     52103     52102     52104     52106     52105     52107     52109     52108     52110
     52112     52111     52113     52115     52114     52116     52118     52117     52119
     52121     52120     52122     52124     52123     52125     52127     52126     52128
     52130     52129     52131     52133     52132     52134     52136     52135     52137
     52139     52138     52140     52142     52141     52143     52145     52144     52146
     52148     52147     52149     52151     52150     52152     52154     52153     52155
     52157     52156     52158     52160     52159     52161     52163     52162     52164
     52166     52165     52167     52169     52168     52170     52172     52171     52173
     52175     52174     52176     52178     52177     52179     52181     52180     52182
     52184     52183     52185     52187     52186     52188     52190     52189     52191
     52193     52192     52194     52196     52195     52197     52199     52198     52200
     52202     52201     52203     52205     52204     52206     52208     52207     52209
     52211     52210     52212     52214     52213     52215     52217     52216     52218
     52220     52219     52221     52223     52222     52224     52226     52225     52227
     52229     52228     52230     52232     52231     52233     52235     52234     52236
     52238     52237     52239     52241     52240     52242     52244     52243     52245
     52247     52246     52248     52250     52249     52251     52253     52252     52254
     52256     52255     52257     52259     52258     52260     52262     52261     52263
     52265     52264     52266     52268     52267     52269     52271     52270     52272
     52274     52273     52275     52277     52276     52278     52280     52279     52281
     52283     52282     52284     52286     52285     52287     52289     52288     52290
     52292     52291     52293     52295     52294     52296     52298     52297     52299
     52301     52300     52302     52304     52303     52305     52307     52306     52308
     52310     52309     52311     52313     52312     52314     52316     52315     52317
     52319     52318     52320     52322     52321     52323     52325     52324     52326
     52328     52327     52329     52331     52330     52332     52334     52333     52335
     52337     52336     52338     52340     52339     52341     52343     52342     52344
     52346     52345     52347     52349     52348     52350     52352     52351     52353
     52355     52354     52356     52358     52357     52359     52361     52360     52362
     52364     52363     52365     52367     52366     52368     52370     52369     52371
     52373     52372     52374     52376     52375     52377     52379     52378     52380
     52382     52381     52383     52385     52384     52386     52388     52387     52389
     52391     52390     52392     52394     52393     52395     52397     52396     52398
     52400     52399     52401     52403     52402     52404     52406     52405     52407
     52409     52408     52410     52412     52411     52413     52415     52414     52416
     52418     52417     52419     52421     52420     52422     52424     52423     52425
     52427     52426     52428     52430     52429     52431     52433     52432     52434
     52436     52435     52437     52439     52438     52440     52442     52441     52443
     52445     52444     52446     52448     52447     52449     52451     52450     52452
     52454     52453     52455     52457     52456     52458     52460     52459     52461
     52463     52462     52464     52466     52465     52467     52469     52468     52470
     52472     52471     52473     52475     52474     52476     52478     52477     52479
     52481     52480     52482     52484     52483     52485     52487     52486     52488
     52490     52489     52491     52493     52492     52494     52496     52495     52497
     52499     52498     52500     52502     52501     52503     52505     52504     52506
     52508     52507     52509     52511     52510     52512     52514     52513     52515
     52517     52516     52518     52520     52519     52521     52523     52522     52524
     52526     52525     52527     52529     52528     52530     52532     52531     52533
     52535     52534     52536     52538     52537     52539     52541     52540     52542
     52544     52543     52545     52547     52546     52548     52550     52549     52551
     52553     52552     52554     52556     52555     52557     52559     52558     52560
     52562     52561     52563     52565     52564     52566     52568     52567     52569
     52571     52570     52572     52574     52573     52575     52577     52576     52578
     52580     52579     52581     52583     52582     52584     52586     52585     52587
     52589     52588     52590     52592     52591     52593     52595     52594     52596
     52598     52597     52599     52601     52600     52602     52604     52603     52605
     52607     52606     52608     52610     52609     52611     52613     52612     52614
     52616     52615     52617     52619     52618     52620     52622     52621     52623
     52625     52624     52626     52628     52627     52629     52631     52630     52632
     52634     52633     52635     52637     52636     52638     52640     52639     52641
     52643     52642     52644     52646     52645     52647     52649     52648     52650
     52652     52651     52653     52655     52654     52656     52658     52657     52659
     52661     52660     52662     52664     52663     52665     52667     52666     52668
     52670     52669     52671     52673     52672     52674     52676     52675     52677
     52679     52678     52680     52682     52681     52683     52685     52684     52686
     52688     52687     52689     52691     52690     52692     52694     52693     52695
     52697     52696     52698     52700     52699     52701     52703     52702     52704
     52706     52705     52707     52709     52708     52710     52712     52711     52713
     52715     52714     52716     52718     52717     52719     52721     52720     52722
     52724     52723     52725     52727     52726     52728     52730     52729     52731
     52733     52732     52734     52736     52735     52737     52739     52738     52740
     52742     52741     52743     52745     52744     52746     52748     52747     52749
     52751     52750     52752     52754     52753     52755     52757     52756     52758
     52760     52759     52761     52763     52762     52764     52766     52765     52767
     52769     52768     52770     52772     52771     52773     52775     52774     52776
     52778     52777     52779     52781     52780     52782     52784     52783     52785
     52787     52786     52788     52790     52789     52791     52793     52792     52794
     52796     52795     52797     52799     52798     52800     52802     52801     52803
     52805     52804     52806     52808     52807     52809     52811     52810     52812
     52814     52813     52815     52817     52816     52818     52820     52819     52821
     52823     52822     52824     52826     52825     52827     52829     52828     52830
     52832     52831     52833     52835     52834     52836     52838     52837     52839
     52841     52840     52842     52844     52843     52845     52847     52846     52848
     52850     52849     52851     52853     52852     52854     52856     52855     52857
     52859     52858     52860     52862     52861     52863     52865     52864     52866
     52868     52867     52869     52871     52870     52872     52874     52873     52875
     52877     52876     52878     52880     52879     52881     52883     52882     52884
     52886     52885     52887     52889     52888     52890     52892     52891     52893
     52895     52894     52896     52898     52897     52899     52901     52900     52902
     52904     52903     52905     52907     52906     52908     52910     52909     52911
     52913     52912     52914     52916     52915     52917     52919     52918     52920
     52922     52921     52923     52925     52924     52926     52928     52927     52929
     52931     52930     52932     52934     52933     52935     52937     52936     52938
     52940     52939     52941     52943     52942     52944     52946     52945     52947
     52949     52948     52950     52952     52951     52953     52955     52954     52956
     52958     52957     52959     52961     52960     52962     52964     52963     52965
     52967     52966     52968     52970     52969     52971     52973     52972     52974
     52976     52975     52977     52979     52978     52980     52982     52981     52983
     52985     52984     52986     52988     52987     52989     52991     52990     52992
     52994     52993     52995     52997     52996     52998     53000     52999     53001
     53003     53002     53004     53006     53005     53007     53009     53008     53010
     53012     53011     53013     53015     53014     53016     53018     53017     53019
     53021     53020     53022     53024     53023     53025     53027     53026     53028
     53030     53029     53031     53033     53032     53034     53036     53035     53037
     53039     53038     53040     53042     53041     53043     53045     53044     53046
     53048     53047     53049     53051     53050     53052     53054     53053     53055
     53057     53056     53058     53060     53059     53061     53063     53062     53064
     53066     53065     53067     53069     53068     53070     53072     53071     53073
     53075     53074     53076     53078     53077     53079     53081     53080     53082
     53084     53083     53085     53087     53086     53088     53090     53089     53091
     53093     53092     53094     53096     53095     53097     53099     53098     53100
     53102     53101     53103     53105     53104     53106     53108     53107     53109
     53111     53110     53112     53114     53113     53115     53117     53116     53118
     53120     53119     53121     53123     53122     53124     53126     53125     53127
     53129     53128     53130     53132     53131     53133     53135     53134     53136
     53138     53137     53139     53141     53140     53142     53144     53143     53145
     53147     53146     53148     53150     53149     53151     53153     53152     53154
     53156     53155     53157     53159     53158     53160     53162     53161     53163
     53165     53164     53166     53168     53167     53169     53171     53170     53172
     53174     53173     53175     53177     53176     53178     53180     53179     53181
     53183     53182     53184     53186     53185     53187     53189     53188     53190
     53192     53191     53193     53195     53194     53196     53198     53197     53199
     53201     53200     53202     53204     53203     53205     53207     53206     53208
     53210     53209     53211     53213     53212     53214     53216     53215     53217
     53219     53218     53220     53222     53221     53223     53225     53224     53226
     53228     53227     53229     53231     53230     53232     53234     53233     53235
     53237     53236     53238     53240     53239     53241     53243     53242     53244
     53246     53245     53247     53249     53248     53250     53252     53251     53253
     53255     53254     53256     53258     53257     53259     53261     53260     53262
     53264     53263     53265     53267     53266     53268     53270     53269     53271
     53273     53272     53274     53276     53275     53277     53279     53278     53280
     53282     53281     53283     53285     53284     53286     53288     53287     53289
     53291     53290     53292     53294     53293     53295     53297     53296     53298
     53300     53299     53301     53303     53302     53304     53306     53305     53307
     53309     53308     53310     53312     53311     53313     53315     53314     53316
     53318     53317     53319     53321     53320     53322     53324     53323     53325
     53327     53326     53328     53330     53329     53331     53333     53332     53334
     53336     53335     53337     53339     53338     53340     53342     53341     53343
     53345     53344     53346     53348     53347     53349     53351     53350     53352
     53354     53353     53355     53357     53356     53358     53360     53359     53361
     53363     53362     53364     53366     53365     53367     53369     53368     53370
     53372     53371     53373     53375     53374     53376     53378     53377     53379
     53381     53380     53382     53384     53383     53385     53387     53386     53388
     53390     53389     53391     53393     53392     53394     53396     53395     53397
     53399     53398     53400     53402     53401     53403     53405     53404     53406
     53408     53407     53409     53411     53410     53412     53414     53413     53415
     53417     53416     53418     53420     53419     53421     53423     53422     53424
     53426     53425     53427     53429     53428     53430     53432     53431     53433
     53435     53434     53436     53438     53437     53439     53441     53440     53442
     53444     53443     53445     53447     53446     53448     53450     53449     53451
     53453     53452     53454     53456     53455     53457     53459     53458     53460
     53462     53461     53463     53465     53464     53466     53468     53467     53469
     53471     53470     53472     53474     53473     53475     53477     53476     53478
     53480     53479     53481     53483     53482     53484     53486     53485     53487
     53489     53488     53490     53492     53491     53493     53495     53494     53496
     53498     53497     53499     53501     53500     53502     53504     53503     53505
     53507     53506     53508     53510     53509     53511     53513     53512     53514
     53516     53515     53517     53519     53518     53520     53522     53521     53523
     53525     53524     53526     53528     53527     53529     53531     53530     53532
     53534     53533     53535     53537     53536     53538     53540     53539     53541
     53543     53542     53544     53546     53545     53547     53549     53548     53550
     53552     53551     53553     53555     53554     53556     53558     53557     53559
     53561     53560     53562     53564     53563     53565     53567     53566     53568
     53570     53569     53571     53573     53572     53574     53576     53575     53577
     53579     53578     53580     53582     53581     53583     53585     53584     53586
     53588     53587     53589     53591     53590     53592     53594     53593     53595
     53597     53596     53598     53600     53599     53601     53603     53602     53604
     53606     53605     53607     53609     53608     53610     53612     53611     53613
     53615     53614     53616     53618     53617     53619     53621     53620     53622
     53624     53623     53625     53627     53626     53628     53630     53629     53631
     53633     53632     53634     53636     53635     53637     53639     53638     53640
     53642     53641     53643     53645     53644     53646     53648     53647     53649
     53651     53650     53652     53654     53653     53655     53657     53656     53658
     53660     53659     53661     53663     53662     53664     53666     53665     53667
     53669     53668     53670     53672     53671     53673     53675     53674     53676
     53678     53677     53679     53681     53680     53682     53684     53683     53685
     53687     53686     53688     53690     53689     53691     53693     53692     53694
     53696     53695     53697     53699     53698     53700     53702     53701     53703
     53705     53704     53706     53708     53707     53709     53711     53710     53712
     53714     53713     53715     53717     53716     53718     53720     53719     53721
     53723     53722     53724     53726     53725     53727     53729     53728     53730
     53732     53731     53733     53735     53734     53736     53738     53737     53739
     53741     53740     53742     53744     53743     53745     53747     53746     53748
     53750     53749     53751     53753     53752     53754     53756     53755     53757
     53759     53758     53760     53762     53761     53763     53765     53764     53766
     53768     53767     53769     53771     53770     53772     53774     53773     53775
     53777     53776     53778     53780     53779     53781     53783     53782     53784
     53786     53785     53787     53789     53788     53790     53792     53791     53793
     53795     53794     53796     53798     53797     53799     53801     53800     53802
     53804     53803     53805     53807     53806     53808     53810     53809     53811
     53813     53812     53814     53816     53815     53817     53819     53818     53820
     53822     53821     53823     53825     53824     53826     53828     53827     53829
     53831     53830     53832     53834     53833     53835     53837     53836     53838
     53840     53839     53841     53843     53842     53844     53846     53845     53847
     53849     53848     53850     53852     53851     53853     53855     53854     53856
     53858     53857     53859     53861     53860     53862     53864     53863     53865
     53867     53866     53868     53870     53869     53871     53873     53872     53874
     53876     53875     53877     53879     53878     53880     53882     53881     53883
     53885     53884     53886     53888     53887     53889     53891     53890     53892
     53894     53893     53895     53897     53896     53898     53900     53899     53901
     53903     53902     53904     53906     53905     53907     53909     53908     53910
     53912     53911     53913     53915     53914     53916     53918     53917     53919
     53921     53920     53922     53924     53923     53925     53927     53926     53928
     53930     53929     53931     53933     53932     53934     53936     53935     53937
     53939     53938     53940     53942     53941     53943     53945     53944     53946
     53948     53947     53949     53951     53950     53952     53954     53953     53955
     53957     53956     53958     53960     53959     53961     53963     53962     53964
     53966     53965     53967     53969     53968     53970     53972     53971     53973
     53975     53974     53976     53978     53977     53979     53981     53980     53982
     53984     53983     53985     53987     53986     53988     53990     53989     53991
     53993     53992     53994     53996     53995     53997     53999     53998     54000
     54002     54001     54003     54005     54004     54006     54008     54007     54009
     54011     54010     54012     54014     54013     54015     54017     54016     54018
     54020     54019     54021     54023     54022     54024     54026     54025     54027
     54029     54028     54030     54032     54031     54033     54035     54034     54036
     54038     54037     54039     54041     54040     54042     54044     54043     54045
     54047     54046     54048     54050     54049     54051     54053     54052     54054
     54056     54055     54057     54059     54058     54060     54062     54061     54063
     54065     54064     54066     54068     54067     54069     54071     54070     54072
     54074     54073     54075     54077     54076     54078     54080     54079     54081
     54083     54082     54084     54086     54085     54087     54089     54088     54090
     54092     54091     54093     54095     54094     54096     54098     54097     54099
     54101     54100     54102     54104     54103     54105     54107     54106     54108
     54110     54109     54111     54113     54112     54114     54116     54115     54117
     54119     54118     54120     54122     54121     54123     54125     54124     54126
     54128     54127     54129     54131     54130     54132     54134     54133     54135
     54137     54136     54138     54140     54139     54141     54143     54142     54144
     54146     54145     54147     54149     54148     54150     54152     54151     54153
     54155     54154     54156     54158     54157     54159     54161     54160     54162
     54164     54163     54165     54167     54166     54168     54170     54169     54171
     54173     54172     54174     54176     54175     54177     54179     54178     54180
     54182     54181     54183     54185     54184     54186     54188     54187     54189
     54191     54190     54192     54194     54193     54195     54197     54196     54198
     54200     54199     54201     54203     54202     54204     54206     54205     54207
     54209     54208     54210     54212     54211     54213     54215     54214     54216
     54218     54217     54219     54221     54220     54222     54224     54223     54225
     54227     54226     54228     54230     54229     54231     54233     54232     54234
     54236     54235     54237     54239     54238     54240     54242     54241     54243
     54245     54244     54246     54248     54247     54249     54251     54250     54252
     54254     54253     54255     54257     54256     54258     54260     54259     54261
     54263     54262     54264     54266     54265     54267     54269     54268     54270
     54272     54271     54273     54275     54274     54276     54278     54277     54279
     54281     54280     54282     54284     54283     54285     54287     54286     54288
     54290     54289     54291     54293     54292     54294     54296     54295     54297
     54299     54298     54300     54302     54301     54303     54305     54304     54306
     54308     54307     54309     54311     54310     54312     54314     54313     54315
     54317     54316     54318     54320     54319     54321     54323     54322     54324
     54326     54325     54327     54329     54328     54330     54332     54331     54333
     54335     54334     54336     54338     54337     54339     54341     54340     54342
     54344     54343     54345     54347     54346     54348     54350     54349     54351
     54353     54352     54354     54356     54355     54357     54359     54358     54360
     54362     54361     54363     54365     54364     54366     54368     54367     54369
     54371     54370     54372     54374     54373     54375     54377     54376     54378
     54380     54379     54381     54383     54382     54384     54386     54385     54387
     54389     54388     54390     54392     54391     54393     54395     54394     54396
     54398     54397     54399     54401     54400     54402     54404     54403     54405
     54407     54406     54408     54410     54409     54411     54413     54412     54414
     54416     54415     54417     54419     54418     54420     54422     54421     54423
     54425     54424     54426     54428     54427     54429     54431     54430     54432
     54434     54433     54435     54437     54436     54438     54440     54439     54441
     54443     54442     54444     54446     54445     54447     54449     54448     54450
     54452     54451     54453     54455     54454     54456     54458     54457     54459
     54461     54460     54462     54464     54463     54465     54467     54466     54468
     54470     54469     54471     54473     54472     54474     54476     54475     54477
     54479     54478     54480     54482     54481     54483     54485     54484     54486
     54488     54487     54489     54491     54490     54492     54494     54493     54495
     54497     54496     54498     54500     54499     54501     54503     54502     54504
     54506     54505     54507     54509     54508     54510     54512     54511     54513
     54515     54514     54516     54518     54517     54519     54521     54520     54522
     54524     54523     54525     54527     54526     54528     54530     54529     54531
     54533     54532     54534     54536     54535     54537     54539     54538     54540
     54542     54541     54543     54545     54544     54546     54548     54547     54549
     54551     54550     54552     54554     54553     54555     54557     54556     54558
     54560     54559     54561     54563     54562     54564     54566     54565     54567
     54569     54568     54570     54572     54571     54573     54575     54574     54576
     54578     54577     54579     54581     54580     54582     54584     54583     54585
     54587     54586     54588     54590     54589     54591     54593     54592     54594
     54596     54595     54597     54599     54598     54600     54602     54601     54603
     54605     54604     54606     54608     54607     54609     54611     54610     54612
     54614     54613     54615     54617     54616     54618     54620     54619     54621
     54623     54622     54624     54626     54625     54627     54629     54628     54630
     54632     54631     54633     54635     54634     54636     54638     54637     54639
     54641     54640     54642     54644     54643     54645     54647     54646     54648
     54650     54649     54651     54653     54652     54654     54656     54655     54657
     54659     54658     54660     54662     54661     54663     54665     54664     54666
     54668     54667     54669     54671     54670     54672     54674     54673     54675
     54677     54676     54678     54680     54679     54681     54683     54682     54684
     54686     54685     54687     54689     54688     54690     54692     54691     54693
     54695     54694     54696     54698     54697     54699     54701     54700     54702
     54704     54703     54705     54707     54706     54708     54710     54709     54711
     54713     54712     54714     54716     54715     54717     54719     54718     54720
     54722     54721     54723     54725     54724     54726     54728     54727     54729
     54731     54730     54732     54734     54733     54735     54737     54736     54738
     54740     54739     54741     54743     54742     54744     54746     54745     54747
     54749     54748     54750     54752     54751     54753     54755     54754     54756
     54758     54757     54759     54761     54760     54762     54764     54763     54765
     54767     54766     54768     54770     54769     54771     54773     54772     54774
     54776     54775     54777     54779     54778     54780     54782     54781     54783
     54785     54784     54786     54788     54787     54789     54791     54790     54792
     54794     54793     54795     54797     54796     54798     54800     54799     54801
     54803     54802     54804     54806     54805     54807     54809     54808     54810
     54812     54811     54813     54815     54814     54816     54818     54817     54819
     54821     54820     54822     54824     54823     54825     54827     54826     54828
     54830     54829     54831     54833     54832     54834     54836     54835     54837
     54839     54838     54840     54842     54841     54843     54845     54844     54846
     54848     54847     54849     54851     54850     54852     54854     54853     54855
     54857     54856     54858     54860     54859     54861     54863     54862     54864
     54866     54865     54867     54869     54868     54870     54872     54871     54873
     54875     54874     54876     54878     54877     54879     54881     54880     54882
     54884     54883     54885     54887     54886     54888     54890     54889     54891
     54893     54892     54894     54896     54895     54897     54899     54898     54900
     54902     54901     54903     54905     54904     54906     54908     54907     54909
     54911     54910     54912     54914     54913     54915     54917     54916     54918
     54920     54919     54921     54923     54922     54924     54926     54925     54927
     54929     54928     54930     54932     54931     54933     54935     54934     54936
     54938     54937     54939     54941     54940     54942     54944     54943     54945
     54947     54946     54948     54950     54949     54951     54953     54952     54954
     54956     54955     54957     54959     54958     54960     54962     54961     54963
     54965     54964     54966     54968     54967     54969     54971     54970     54972
     54974     54973     54975     54977     54976     54978     54980     54979     54981
     54983     54982     54984     54986     54985     54987     54989     54988     54990
     54992     54991     54993     54995     54994     54996     54998     54997     54999
     55001     55000     55002     55004     55003     55005     55007     55006     55008
     55010     55009     55011     55013     55012     55014     55016     55015     55017
     55019     55018     55020     55022     55021     55023     55025     55024     55026
     55028     55027     55029     55031     55030     55032     55034     55033     55035
     55037     55036     55038     55040     55039     55041     55043     55042     55044
     55046     55045     55047     55049     55048     55050     55052     55051     55053
     55055     55054     55056     55058     55057     55059     55061     55060     55062
     55064     55063     55065     55067     55066     55068     55070     55069     55071
     55073     55072     55074     55076     55075     55077     55079     55078     55080
     55082     55081     55083     55085     55084     55086     55088     55087     55089
     55091     55090     55092     55094     55093     55095     55097     55096     55098
     55100     55099     55101     55103     55102     55104     55106     55105     55107
     55109     55108     55110     55112     55111     55113     55115     55114     55116
     55118     55117     55119     55121     55120     55122     55124     55123     55125
     55127     55126     55128     55130     55129     55131     55133     55132     55134
     55136     55135     55137     55139     55138     55140     55142     55141     55143
     55145     55144     55146     55148     55147     55149     55151     55150     55152
     55154     55153     55155     55157     55156     55158     55160     55159     55161
     55163     55162     55164     55166     55165     55167     55169     55168     55170
     55172     55171     55173     55175     55174     55176     55178     55177     55179
     55181     55180     55182     55184     55183     55185     55187     55186     55188
     55190     55189     55191     55193     55192     55194     55196     55195     55197
     55199     55198     55200     55202     55201     55203     55205     55204     55206
     55208     55207     55209     55211     55210     55212     55214     55213     55215
     55217     55216     55218     55220     55219     55221     55223     55222     55224
     55226     55225     55227     55229     55228     55230     55232     55231     55233
     55235     55234     55236     55238     55237     55239     55241     55240     55242
     55244     55243     55245     55247     55246     55248     55250     55249     55251
     55253     55252     55254     55256     55255     55257     55259     55258     55260
     55262     55261     55263     55265     55264     55266     55268     55267     55269
     55271     55270     55272     55274     55273     55275     55277     55276     55278
     55280     55279     55281     55283     55282     55284     55286     55285     55287
     55289     55288     55290     55292     55291     55293     55295     55294     55296
     55298     55297     55299     55301     55300     55302     55304     55303     55305
     55307     55306     55308     55310     55309     55311     55313     55312     55314
     55316     55315     55317     55319     55318     55320     55322     55321     55323
     55325     55324     55326     55328     55327     55329     55331     55330     55332
     55334     55333     55335     55337     55336     55338     55340     55339     55341
     55343     55342     55344     55346     55345     55347     55349     55348     55350
     55352     55351     55353     55355     55354     55356     55358     55357     55359
     55361     55360     55362     55364     55363     55365     55367     55366     55368
     55370     55369     55371     55373     55372     55374     55376     55375     55377
     55379     55378     55380     55382     55381     55383     55385     55384     55386
     55388     55387     55389     55391     55390     55392     55394     55393     55395
     55397     55396     55398     55400     55399     55401     55403     55402     55404
     55406     55405     55407     55409     55408     55410     55412     55411     55413
     55415     55414     55416     55418     55417     55419     55421     55420     55422
     55424     55423     55425     55427     55426     55428     55430     55429     55431
     55433     55432     55434     55436     55435     55437     55439     55438     55440
     55442     55441     55443     55445     55444     55446     55448     55447     55449
     55451     55450     55452     55454     55453     55455     55457     55456     55458
     55460     55459     55461     55463     55462     55464     55466     55465     55467
     55469     55468     55470     55472     55471     55473     55475     55474     55476
     55478     55477     55479     55481     55480     55482     55484     55483     55485
     55487     55486     55488     55490     55489     55491     55493     55492     55494
     55496     55495     55497     55499     55498     55500     55502     55501     55503
     55505     55504     55506     55508     55507     55509     55511     55510     55512
     55514     55513     55515     55517     55516     55518     55520     55519     55521
     55523     55522     55524     55526     55525     55527     55529     55528     55530
     55532     55531     55533     55535     55534     55536     55538     55537     55539
     55541     55540     55542     55544     55543     55545     55547     55546     55548
     55550     55549     55551     55553     55552     55554     55556     55555     55557
     55559     55558     55560     55562     55561     55563     55565     55564     55566
     55568     55567     55569     55571     55570     55572     55574     55573     55575
     55577     55576     55578     55580     55579     55581     55583     55582     55584
     55586     55585     55587     55589     55588     55590     55592     55591     55593
     55595     55594     55596     55598     55597     55599     55601     55600     55602
     55604     55603     55605     55607     55606     55608     55610     55609     55611
     55613     55612     55614     55616     55615     55617     55619     55618     55620
     55622     55621     55623     55625     55624     55626     55628     55627     55629
     55631     55630     55632     55634     55633     55635     55637     55636     55638
     55640     55639     55641     55643     55642     55644     55646     55645     55647
     55649     55648     55650     55652     55651     55653     55655     55654     55656
     55658     55657     55659     55661     55660     55662     55664     55663     55665
     55667     55666     55668     55670     55669     55671     55673     55672     55674
     55676     55675     55677     55679     55678     55680     55682     55681     55683
     55685     55684     55686     55688     55687     55689     55691     55690     55692
     55694     55693     55695     55697     55696     55698     55700     55699     55701
     55703     55702     55704     55706     55705     55707     55709     55708     55710
     55712     55711     55713     55715     55714     55716     55718     55717     55719
     55721     55720     55722     55724     55723     55725     55727     55726     55728
     55730     55729     55731     55733     55732     55734     55736     55735     55737
     55739     55738     55740     55742     55741     55743     55745     55744     55746
     55748     55747     55749     55751     55750     55752     55754     55753     55755
     55757     55756     55758     55760     55759     55761     55763     55762     55764
     55766     55765     55767     55769     55768     55770     55772     55771     55773
     55775     55774     55776     55778     55777     55779     55781     55780     55782
     55784     55783     55785     55787     55786     55788     55790     55789     55791
     55793     55792     55794     55796     55795     55797     55799     55798     55800
     55802     55801     55803     55805     55804     55806     55808     55807     55809
     55811     55810     55812     55814     55813     55815     55817     55816     55818
     55820     55819     55821     55823     55822     55824     55826     55825     55827
     55829     55828     55830     55832     55831     55833     55835     55834     55836
     55838     55837     55839     55841     55840     55842     55844     55843     55845
     55847     55846     55848     55850     55849     55851     55853     55852     55854
     55856     55855     55857     55859     55858     55860     55862     55861     55863
     55865     55864     55866     55868     55867     55869     55871     55870     55872
     55874     55873     55875     55877     55876     55878     55880     55879     55881
     55883     55882     55884     55886     55885     55887     55889     55888     55890
     55892     55891     55893     55895     55894     55896     55898     55897     55899
     55901     55900     55902     55904     55903     55905     55907     55906     55908
     55910     55909     55911     55913     55912     55914     55916     55915     55917
     55919     55918     55920     55922     55921     55923     55925     55924     55926
     55928     55927     55929     55931     55930     55932     55934     55933     55935
     55937     55936     55938     55940     55939     55941     55943     55942     55944
     55946     55945     55947     55949     55948     55950     55952     55951     55953
     55955     55954     55956     55958     55957     55959     55961     55960     55962
     55964     55963     55965     55967     55966     55968     55970     55969     55971
     55973     55972     55974     55976     55975     55977     55979     55978     55980
     55982     55981     55983     55985     55984     55986     55988     55987     55989
     55991     55990     55992     55994     55993     55995     55997     55996     55998
     56000     55999     56001     56003     56002     56004     56006     56005     56007
     56009     56008     56010     56012     56011     56013     56015     56014     56016
     56018     56017     56019     56021     56020     56022     56024     56023     56025
     56027     56026     56028     56030     56029     56031     56033     56032     56034
     56036     56035     56037     56039     56038     56040     56042     56041     56043
     56045     56044     56046     56048     56047     56049     56051     56050     56052
     56054     56053     56055     56057     56056     56058     56060     56059     56061
     56063     56062     56064     56066     56065     56067     56069     56068     56070
     56072     56071     56073     56075     56074     56076     56078     56077     56079
     56081     56080     56082     56084     56083     56085     56087     56086     56088
     56090     56089     56091     56093     56092     56094     56096     56095     56097
     56099     56098     56100     56102     56101     56103     56105     56104     56106
     56108     56107     56109     56111     56110     56112     56114     56113     56115
     56117     56116     56118     56120     56119     56121     56123     56122     56124
     56126     56125     56127     56129     56128     56130     56132     56131     56133
     56135     56134     56136     56138     56137     56139     56141     56140     56142
     56144     56143     56145     56147     56146     56148     56150     56149     56151
     56153     56152     56154     56156     56155     56157     56159     56158     56160
     56162     56161     56163     56165     56164     56166     56168     56167     56169
     56171     56170     56172     56174     56173     56175     56177     56176     56178
     56180     56179     56181     56183     56182     56184     56186     56185     56187
     56189     56188     56190     56192     56191     56193     56195     56194     56196
     56198     56197     56199     56201     56200     56202     56204     56203     56205
     56207     56206     56208     56210     56209     56211     56213     56212     56214
     56216     56215     56217     56219     56218     56220     56222     56221     56223
     56225     56224     56226     56228     56227     56229     56231     56230     56232
     56234     56233     56235     56237     56236     56238     56240     56239     56241
     56243     56242     56244     56246     56245     56247     56249     56248     56250
     56252     56251     56253     56255     56254     56256     56258     56257     56259
     56261     56260     56262     56264     56263     56265     56267     56266     56268
     56270     56269     56271     56273     56272     56274     56276     56275     56277
     56279     56278     56280     56282     56281     56283     56285     56284     56286
     56288     56287     56289     56291     56290     56292     56294     56293     56295
     56297     56296     56298     56300     56299     56301     56303     56302     56304
     56306     56305     56307     56309     56308     56310     56312     56311     56313
     56315     56314     56316     56318     56317     56319     56321     56320     56322
     56324     56323     56325     56327     56326     56328     56330     56329     56331
     56333     56332     56334     56336     56335     56337     56339     56338     56340
     56342     56341     56343     56345     56344     56346     56348     56347     56349
     56351     56350     56352     56354     56353     56355     56357     56356     56358
     56360     56359     56361     56363     56362     56364     56366     56365     56367
     56369     56368     56370     56372     56371     56373     56375     56374     56376
     56378     56377     56379     56381     56380     56382     56384     56383     56385
     56387     56386     56388     56390     56389     56391     56393     56392     56394
     56396     56395     56397     56399     56398     56400     56402     56401     56403
     56405     56404     56406     56408     56407     56409     56411     56410     56412
     56414     56413     56415     56417     56416     56418     56420     56419     56421
     56423     56422     56424     56426     56425     56427     56429     56428     56430
     56432     56431     56433     56435     56434     56436     56438     56437     56439
     56441     56440     56442     56444     56443     56445     56447     56446     56448
     56450     56449     56451     56453     56452     56454     56456     56455     56457
     56459     56458     56460     56462     56461     56463     56465     56464     56466
     56468     56467     56469     56471     56470     56472     56474     56473     56475
     56477     56476     56478     56480     56479     56481     56483     56482     56484
     56486     56485     56487     56489     56488     56490     56492     56491     56493
     56495     56494     56496     56498     56497     56499     56501     56500     56502
     56504     56503     56505     56507     56506     56508     56510     56509     56511
     56513     56512     56514     56516     56515     56517     56519     56518     56520
     56522     56521     56523     56525     56524     56526     56528     56527     56529
     56531     56530     56532     56534     56533     56535     56537     56536     56538
     56540     56539     56541     56543     56542     56544     56546     56545     56547
     56549     56548     56550     56552     56551     56553     56555     56554     56556
     56558     56557     56559     56561     56560     56562     56564     56563     56565
     56567     56566     56568     56570     56569     56571     56573     56572     56574
     56576     56575     56577     56579     56578     56580     56582     56581     56583
     56585     56584     56586     56588     56587     56589     56591     56590     56592
     56594     56593     56595     56597     56596     56598     56600     56599     56601
     56603     56602     56604     56606     56605     56607     56609     56608     56610
     56612     56611     56613     56615     56614     56616     56618     56617     56619
     56621     56620     56622     56624     56623     56625     56627     56626     56628
     56630     56629     56631     56633     56632     56634     56636     56635     56637
     56639     56638     56640     56642     56641     56643     56645     56644     56646
     56648     56647     56649     56651     56650     56652     56654     56653     56655
     56657     56656     56658     56660     56659     56661     56663     56662     56664
     56666     56665     56667     56669     56668     56670     56672     56671     56673
     56675     56674     56676     56678     56677     56679     56681     56680     56682
     56684     56683     56685     56687     56686     56688     56690     56689     56691
     56693     56692     56694     56696     56695     56697     56699     56698     56700
     56702     56701     56703     56705     56704     56706     56708     56707     56709
     56711     56710     56712     56714     56713     56715     56717     56716     56718
     56720     56719     56721     56723     56722     56724     56726     56725     56727
     56729     56728     56730     56732     56731     56733     56735     56734     56736
     56738     56737     56739     56741     56740     56742     56744     56743     56745
     56747     56746     56748     56750     56749     56751     56753     56752     56754
     56756     56755     56757     56759     56758     56760     56762     56761     56763
     56765     56764     56766     56768     56767     56769     56771     56770     56772
     56774     56773     56775     56777     56776     56778     56780     56779     56781
     56783     56782     56784     56786     56785     56787     56789     56788     56790
     56792     56791     56793     56795     56794     56796     56798     56797     56799
     56801     56800     56802     56804     56803     56805     56807     56806     56808
     56810     56809     56811     56813     56812     56814     56816     56815     56817
     56819     56818     56820     56822     56821     56823     56825     56824     56826
     56828     56827     56829     56831     56830     56832     56834     56833     56835
     56837     56836     56838     56840     56839     56841     56843     56842     56844
     56846     56845     56847     56849     56848     56850     56852     56851     56853
     56855     56854     56856     56858     56857     56859     56861     56860     56862
     56864     56863     56865     56867     56866     56868     56870     56869     56871
     56873     56872     56874     56876     56875     56877     56879     56878     56880
     56882     56881     56883     56885     56884     56886     56888     56887     56889
     56891     56890     56892     56894     56893     56895     56897     56896     56898
     56900     56899     56901     56903     56902     56904     56906     56905     56907
     56909     56908     56910     56912     56911     56913     56915     56914     56916
     56918     56917     56919     56921     56920     56922     56924     56923     56925
     56927     56926     56928     56930     56929     56931     56933     56932     56934
     56936     56935     56937     56939     56938     56940     56942     56941     56943
     56945     56944     56946     56948     56947     56949     56951     56950     56952
     56954     56953     56955     56957     56956     56958     56960     56959     56961
     56963     56962     56964     56966     56965     56967     56969     56968     56970
     56972     56971     56973     56975     56974     56976     56978     56977     56979
     56981     56980     56982     56984     56983     56985     56987     56986     56988
     56990     56989     56991     56993     56992     56994     56996     56995     56997
     56999     56998     57000     57002     57001     57003     57005     57004     57006
     57008     57007     57009     57011     57010     57012     57014     57013     57015
     57017     57016     57018     57020     57019     57021     57023     57022     57024
     57026     57025     57027     57029     57028     57030     57032     57031     57033
     57035     57034     57036     57038     57037     57039     57041     57040     57042
     57044     57043     57045     57047     57046     57048     57050     57049     57051
     57053     57052     57054     57056     57055     57057     57059     57058     57060
     57062     57061     57063     57065     57064     57066     57068     57067     57069
     57071     57070     57072     57074     57073     57075     57077     57076     57078
     57080     57079     57081     57083     57082     57084     57086     57085     57087
     57089     57088     57090     57092     57091     57093     57095     57094     57096
     57098     57097     57099     57101     57100     57102     57104     57103     57105
     57107     57106     57108     57110     57109     57111     57113     57112     57114
     57116     57115     57117     57119     57118     57120     57122     57121     57123
     57125     57124     57126     57128     57127     57129     57131     57130     57132
     57134     57133     57135     57137     57136     57138     57140     57139     57141
     57143     57142     57144     57146     57145     57147     57149     57148     57150
     57152     57151     57153     57155     57154     57156     57158     57157     57159
     57161     57160     57162     57164     57163     57165     57167     57166     57168
     57170     57169     57171     57173     57172     57174     57176     57175     57177
     57179     57178     57180     57182     57181     57183     57185     57184     57186
     57188     57187     57189     57191     57190     57192     57194     57193     57195
     57197     57196     57198     57200     57199     57201     57203     57202     57204
     57206     57205     57207     57209     57208     57210     57212     57211     57213
     57215     57214     57216     57218     57217     57219     57221     57220     57222
     57224     57223     57225     57227     57226     57228     57230     57229     57231
     57233     57232     57234     57236     57235     57237     57239     57238     57240
     57242     57241     57243     57245     57244     57246     57248     57247     57249
     57251     57250     57252     57254     57253     57255     57257     57256     57258
     57260     57259     57261     57263     57262     57264     57266     57265     57267
     57269     57268     57270     57272     57271     57273     57275     57274     57276
     57278     57277     57279     57281     57280     57282     57284     57283     57285
     57287     57286     57288     57290     57289     57291     57293     57292     57294
     57296     57295     57297     57299     57298     57300     57302     57301     57303
     57305     57304     57306     57308     57307     57309     57311     57310     57312
     57314     57313     57315     57317     57316     57318     57320     57319     57321
     57323     57322     57324     57326     57325     57327     57329     57328     57330
     57332     57331     57333     57335     57334     57336     57338     57337     57339
     57341     57340     57342     57344     57343     57345     57347     57346     57348
     57350     57349     57351     57353     57352     57354     57356     57355     57357
     57359     57358     57360     57362     57361     57363     57365     57364     57366
     57368     57367     57369     57371     57370     57372     57374     57373     57375
     57377     57376     57378     57380     57379     57381     57383     57382     57384
     57386     57385     57387     57389     57388     57390     57392     57391     57393
     57395     57394     57396     57398     57397     57399     57401     57400     57402
     57404     57403     57405     57407     57406     57408     57410     57409     57411
     57413     57412     57414     57416     57415     57417     57419     57418     57420
     57422     57421     57423     57425     57424     57426     57428     57427     57429
     57431     57430     57432     57434     57433     57435     57437     57436     57438
     57440     57439     57441     57443     57442     57444     57446     57445     57447
     57449     57448     57450     57452     57451     57453     57455     57454     57456
     57458     57457     57459     57461     57460     57462     57464     57463     57465
     57467     57466     57468     57470     57469     57471     57473     57472     57474
     57476     57475     57477     57479     57478     57480     57482     57481     57483
     57485     57484     57486     57488     57487     57489     57491     57490     57492
     57494     57493     57495     57497     57496     57498     57500     57499     57501
     57503     57502     57504     57506     57505     57507     57509     57508     57510
     57512     57511     57513     57515     57514     57516     57518     57517     57519
     57521     57520     57522     57524     57523     57525     57527     57526     57528
     57530     57529     57531     57533     57532     57534     57536     57535     57537
     57539     57538     57540     57542     57541     57543     57545     57544     57546
     57548     57547     57549     57551     57550     57552     57554     57553     57555
     57557     57556     57558     57560     57559     57561     57563     57562     57564
     57566     57565     57567     57569     57568     57570     57572     57571     57573
     57575     57574     57576     57578     57577     57579     57581     57580     57582
     57584     57583     57585     57587     57586     57588     57590     57589     57591
     57593     57592     57594     57596     57595     57597     57599     57598     57600
     57602     57601     57603     57605     57604     57606     57608     57607     57609
     57611     57610     57612     57614     57613     57615     57617     57616     57618
     57620     57619     57621     57623     57622     57624     57626     57625     57627
     57629     57628     57630     57632     57631     57633     57635     57634     57636
     57638     57637     57639     57641     57640     57642     57644     57643     57645
     57647     57646     57648     57650     57649     57651     57653     57652     57654
     57656     57655     57657     57659     57658     57660     57662     57661     57663
     57665     57664     57666     57668     57667     57669     57671     57670     57672
     57674     57673     57675     57677     57676     57678     57680     57679     57681
     57683     57682     57684     57686     57685     57687     57689     57688     57690
     57692     57691     57693     57695     57694     57696     57698     57697     57699
     57701     57700     57702     57704     57703     57705     57707     57706     57708
     57710     57709     57711     57713     57712     57714     57716     57715     57717
     57719     57718     57720     57722     57721     57723     57725     57724     57726
     57728     57727     57729     57731     57730     57732     57734     57733     57735
     57737     57736     57738     57740     57739     57741     57743     57742     57744
     57746     57745     57747     57749     57748     57750     57752     57751     57753
     57755     57754     57756     57758     57757     57759     57761     57760     57762
     57764     57763     57765     57767     57766     57768     57770     57769     57771
     57773     57772     57774     57776     57775     57777     57779     57778     57780
     57782     57781     57783     57785     57784     57786     57788     57787     57789
     57791     57790     57792     57794     57793     57795     57797     57796     57798
     57800     57799     57801     57803     57802     57804     57806     57805     57807
     57809     57808     57810     57812     57811     57813     57815     57814     57816
     57818     57817     57819     57821     57820     57822     57824     57823     57825
     57827     57826     57828     57830     57829     57831     57833     57832     57834
     57836     57835     57837     57839     57838     57840     57842     57841     57843
     57845     57844     57846     57848     57847     57849     57851     57850     57852
     57854     57853     57855     57857     57856     57858     57860     57859     57861
     57863     57862     57864     57866     57865     57867     57869     57868     57870
     57872     57871     57873     57875     57874     57876     57878     57877     57879
     57881     57880     57882     57884     57883     57885     57887     57886     57888
     57890     57889     57891     57893     57892     57894     57896     57895     57897
     57899     57898     57900     57902     57901     57903     57905     57904     57906
     57908     57907     57909     57911     57910     57912     57914     57913     57915
     57917     57916     57918     57920     57919     57921     57923     57922     57924
     57926     57925     57927     57929     57928     57930     57932     57931     57933
     57935     57934     57936     57938     57937     57939     57941     57940     57942
     57944     57943     57945     57947     57946     57948     57950     57949     57951
     57953     57952     57954     57956     57955     57957     57959     57958     57960
     57962     57961     57963     57965     57964     57966     57968     57967     57969
     57971     57970     57972     57974     57973     57975     57977     57976     57978
     57980     57979     57981     57983     57982     57984     57986     57985     57987
     57989     57988     57990     57992     57991     57993     57995     57994     57996
     57998     57997     57999     58001     58000     58002     58004     58003     58005
     58007     58006     58008     58010     58009     58011     58013     58012     58014
     58016     58015     58017     58019     58018     58020     58022     58021     58023
     58025     58024     58026     58028     58027     58029     58031     58030     58032
     58034     58033     58035     58037     58036     58038     58040     58039     58041
     58043     58042     58044     58046     58045     58047     58049     58048     58050
     58052     58051     58053     58055     58054     58056     58058     58057     58059
     58061     58060     58062     58064     58063     58065     58067     58066     58068
     58070     58069     58071     58073     58072     58074     58076     58075     58077
     58079     58078     58080     58082     58081     58083     58085     58084     58086
     58088     58087     58089     58091     58090     58092     58094     58093     58095
     58097     58096     58098     58100     58099     58101     58103     58102     58104
     58106     58105     58107     58109     58108     58110     58112     58111     58113
     58115     58114     58116     58118     58117     58119     58121     58120     58122
     58124     58123     58125     58127     58126     58128     58130     58129     58131
     58133     58132     58134     58136     58135     58137     58139     58138     58140
     58142     58141     58143     58145     58144     58146     58148     58147     58149
     58151     58150     58152     58154     58153     58155     58157     58156     58158
     58160     58159     58161     58163     58162     58164     58166     58165     58167
     58169     58168     58170     58172     58171     58173     58175     58174     58176
     58178     58177     58179     58181     58180     58182     58184     58183     58185
     58187     58186     58188     58190     58189     58191     58193     58192     58194
     58196     58195     58197     58199     58198     58200     58202     58201     58203
     58205     58204     58206     58208     58207     58209     58211     58210     58212
     58214     58213     58215     58217     58216     58218     58220     58219     58221
     58223     58222     58224     58226     58225     58227     58229     58228     58230
     58232     58231     58233     58235     58234     58236     58238     58237     58239
     58241     58240     58242     58244     58243     58245     58247     58246     58248
     58250     58249     58251     58253     58252     58254     58256     58255     58257
     58259     58258     58260     58262     58261     58263     58265     58264     58266
     58268     58267     58269     58271     58270     58272     58274     58273     58275
     58277     58276     58278     58280     58279     58281     58283     58282     58284
     58286     58285     58287     58289     58288     58290     58292     58291     58293
     58295     58294     58296     58298     58297     58299     58301     58300     58302
     58304     58303     58305     58307     58306     58308     58310     58309     58311
     58313     58312     58314     58316     58315     58317     58319     58318     58320
     58322     58321     58323     58325     58324     58326     58328     58327     58329
     58331     58330     58332     58334     58333     58335     58337     58336     58338
     58340     58339     58341     58343     58342     58344     58346     58345     58347
     58349     58348     58350     58352     58351     58353     58355     58354     58356
     58358     58357     58359     58361     58360     58362     58364     58363     58365
     58367     58366     58368     58370     58369     58371     58373     58372     58374
     58376     58375     58377     58379     58378     58380     58382     58381     58383
     58385     58384     58386     58388     58387     58389     58391     58390     58392
     58394     58393     58395     58397     58396     58398     58400     58399     58401
     58403     58402     58404     58406     58405     58407     58409     58408     58410
     58412     58411     58413     58415     58414     58416     58418     58417     58419
     58421     58420     58422     58424     58423     58425     58427     58426     58428
     58430     58429     58431     58433     58432     58434     58436     58435     58437
     58439     58438     58440     58442     58441     58443     58445     58444     58446
     58448     58447     58449     58451     58450     58452     58454     58453     58455
     58457     58456     58458     58460     58459     58461     58463     58462     58464
     58466     58465     58467     58469     58468     58470     58472     58471     58473
     58475     58474     58476     58478     58477     58479     58481     58480     58482
     58484     58483     58485     58487     58486     58488     58490     58489     58491
     58493     58492     58494     58496     58495     58497     58499     58498     58500
     58502     58501     58503     58505     58504     58506     58508     58507     58509
     58511     58510     58512     58514     58513     58515     58517     58516     58518
     58520     58519     58521     58523     58522     58524     58526     58525     58527
     58529     58528     58530     58532     58531     58533     58535     58534     58536
     58538     58537     58539     58541     58540     58542     58544     58543     58545
     58547     58546     58548     58550     58549     58551     58553     58552     58554
     58556     58555     58557     58559     58558     58560     58562     58561     58563
     58565     58564     58566     58568     58567     58569     58571     58570     58572
     58574     58573     58575     58577     58576     58578     58580     58579     58581
     58583     58582     58584     58586     58585     58587     58589     58588     58590
     58592     58591     58593     58595     58594     58596     58598     58597     58599
     58601     58600     58602     58604     58603     58605     58607     58606     58608
     58610     58609     58611     58613     58612     58614     58616     58615     58617
     58619     58618     58620     58622     58621     58623     58625     58624     58626
     58628     58627     58629     58631     58630     58632     58634     58633     58635
     58637     58636     58638     58640     58639     58641     58643     58642     58644
     58646     58645     58647     58649     58648     58650     58652     58651     58653
     58655     58654     58656     58658     58657     58659     58661     58660     58662
     58664     58663     58665     58667     58666     58668     58670     58669     58671
     58673     58672     58674     58676     58675     58677     58679     58678     58680
     58682     58681     58683     58685     58684     58686     58688     58687     58689
     58691     58690     58692     58694     58693     58695     58697     58696     58698
     58700     58699     58701     58703     58702     58704     58706     58705     58707
     58709     58708     58710     58712     58711     58713     58715     58714     58716
     58718     58717     58719     58721     58720     58722     58724     58723     58725
     58727     58726     58728     58730     58729     58731     58733     58732     58734
     58736     58735     58737     58739     58738     58740     58742     58741     58743
     58745     58744     58746     58748     58747     58749     58751     58750     58752
     58754     58753     58755     58757     58756     58758     58760     58759     58761
     58763     58762     58764     58766     58765     58767     58769     58768     58770
     58772     58771     58773     58775     58774     58776     58778     58777     58779
     58781     58780     58782     58784     58783     58785     58787     58786     58788
     58790     58789     58791     58793     58792     58794     58796     58795     58797
     58799     58798     58800     58802     58801     58803     58805     58804     58806
     58808     58807     58809     58811     58810     58812     58814     58813     58815
     58817     58816     58818     58820     58819     58821     58823     58822     58824
     58826     58825     58827     58829     58828     58830     58832     58831     58833
     58835     58834     58836     58838     58837     58839     58841     58840     58842
     58844     58843     58845     58847     58846     58848     58850     58849     58851
     58853     58852     58854     58856     58855     58857     58859     58858     58860
     58862     58861     58863     58865     58864     58866     58868     58867     58869
     58871     58870     58872     58874     58873     58875     58877     58876     58878
     58880     58879     58881     58883     58882     58884     58886     58885     58887
     58889     58888     58890     58892     58891     58893     58895     58894     58896
     58898     58897     58899     58901     58900     58902     58904     58903     58905
     58907     58906     58908     58910     58909     58911     58913     58912     58914
     58916     58915     58917     58919     58918     58920     58922     58921     58923
     58925     58924     58926     58928     58927     58929     58931     58930     58932
     58934     58933     58935     58937     58936     58938     58940     58939     58941
     58943     58942     58944     58946     58945     58947     58949     58948     58950
     58952     58951     58953     58955     58954     58956     58958     58957     58959
     58961     58960     58962     58964     58963     58965     58967     58966     58968
     58970     58969     58971     58973     58972     58974     58976     58975     58977
     58979     58978     58980     58982     58981     58983     58985     58984     58986
     58988     58987     58989     58991     58990     58992     58994     58993     58995
     58997     58996     58998     59000     58999     59001     59003     59002     59004
     59006     59005     59007     59009     59008     59010     59012     59011     59013
     59015     59014     59016     59018     59017     59019     59021     59020     59022
     59024     59023     59025     59027     59026     59028     59030     59029     59031
     59033     59032     59034     59036     59035     59037     59039     59038     59040
     59042     59041     59043     59045     59044     59046     59048     59047     59049
     59051     59050     59052     59054     59053     59055     59057     59056     59058
     59060     59059     59061     59063     59062     59064     59066     59065     59067
     59069     59068     59070     59072     59071     59073     59075     59074     59076
     59078     59077     59079     59081     59080     59082     59084     59083     59085
     59087     59086     59088     59090     59089     59091     59093     59092     59094
     59096     59095     59097     59099     59098     59100     59102     59101     59103
     59105     59104     59106     59108     59107     59109     59111     59110     59112
     59114     59113     59115     59117     59116     59118     59120     59119     59121
     59123     59122     59124     59126     59125     59127     59129     59128     59130
     59132     59131     59133     59135     59134     59136     59138     59137     59139
     59141     59140     59142     59144     59143     59145     59147     59146     59148
     59150     59149     59151     59153     59152     59154     59156     59155     59157
     59159     59158     59160     59162     59161     59163     59165     59164     59166
     59168     59167     59169     59171     59170     59172     59174     59173     59175
     59177     59176     59178     59180     59179     59181     59183     59182     59184
     59186     59185     59187     59189     59188     59190     59192     59191     59193
     59195     59194     59196     59198     59197     59199     59201     59200     59202
     59204     59203     59205     59207     59206     59208     59210     59209     59211
     59213     59212     59214     59216     59215     59217     59219     59218     59220
     59222     59221     59223     59225     59224     59226     59228     59227     59229
     59231     59230     59232     59234     59233     59235     59237     59236     59238
     59240     59239     59241     59243     59242     59244     59246     59245     59247
     59249     59248     59250     59252     59251     59253     59255     59254     59256
     59258     59257     59259     59261     59260     59262     59264     59263     59265
     59267     59266     59268     59270     59269     59271     59273     59272     59274
     59276     59275     59277     59279     59278     59280     59282     59281     59283
     59285     59284     59286     59288     59287     59289     59291     59290     59292
     59294     59293     59295     59297     59296     59298     59300     59299     59301
     59303     59302     59304     59306     59305     59307     59309     59308     59310
     59312     59311     59313     59315     59314     59316     59318     59317     59319
     59321     59320     59322     59324     59323     59325     59327     59326     59328
     59330     59329     59331     59333     59332     59334     59336     59335     59337
     59339     59338     59340     59342     59341     59343     59345     59344     59346
     59348     59347     59349     59351     59350     59352     59354     59353     59355
     59357     59356     59358     59360     59359     59361     59363     59362     59364
     59366     59365     59367     59369     59368     59370     59372     59371     59373
     59375     59374     59376     59378     59377     59379     59381     59380     59382
     59384     59383     59385     59387     59386     59388     59390     59389     59391
     59393     59392     59394     59396     59395     59397     59399     59398     59400
     59402     59401     59403     59405     59404     59406     59408     59407     59409
     59411     59410     59412     59414     59413     59415     59417     59416     59418
     59420     59419     59421     59423     59422     59424     59426     59425     59427
     59429     59428     59430     59432     59431     59433     59435     59434     59436
     59438     59437     59439     59441     59440     59442     59444     59443     59445
     59447     59446     59448     59450     59449     59451     59453     59452     59454
     59456     59455     59457     59459     59458     59460     59462     59461     59463
     59465     59464     59466     59468     59467     59469     59471     59470     59472
     59474     59473     59475     59477     59476     59478     59480     59479     59481
     59483     59482     59484     59486     59485     59487     59489     59488     59490
     59492     59491     59493     59495     59494     59496     59498     59497     59499
     59501     59500     59502     59504     59503     59505     59507     59506     59508
     59510     59509     59511     59513     59512     59514     59516     59515     59517
     59519     59518     59520     59522     59521     59523     59525     59524     59526
     59528     59527     59529     59531     59530     59532     59534     59533     59535
     59537     59536     59538     59540     59539     59541     59543     59542     59544
     59546     59545     59547     59549     59548     59550     59552     59551     59553
     59555     59554     59556     59558     59557     59559     59561     59560     59562
     59564     59563     59565     59567     59566     59568     59570     59569     59571
     59573     59572     59574     59576     59575     59577     59579     59578     59580
     59582     59581     59583     59585     59584     59586     59588     59587     59589
     59591     59590     59592     59594     59593     59595     59597     59596     59598
     59600     59599     59601     59603     59602     59604     59606     59605     59607
     59609     59608     59610     59612     59611     59613     59615     59614     59616
     59618     59617     59619     59621     59620     59622     59624     59623     59625
     59627     59626     59628     59630     59629     59631     59633     59632     59634
     59636     59635     59637     59639     59638     59640     59642     59641     59643
     59645     59644     59646     59648     59647     59649     59651     59650     59652
     59654     59653     59655     59657     59656     59658     59660     59659     59661
     59663     59662     59664     59666     59665     59667     59669     59668     59670
     59672     59671     59673     59675     59674     59676     59678     59677     59679
     59681     59680     59682     59684     59683     59685     59687     59686     59688
     59690     59689     59691     59693     59692     59694     59696     59695     59697
     59699     59698     59700     59702     59701     59703     59705     59704     59706
     59708     59707     59709     59711     59710     59712     59714     59713     59715
     59717     59716     59718     59720     59719     59721     59723     59722     59724
     59726     59725     59727     59729     59728     59730     59732     59731     59733
     59735     59734     59736     59738     59737     59739     59741     59740     59742
     59744     59743     59745     59747     59746     59748     59750     59749     59751
     59753     59752     59754     59756     59755     59757     59759     59758     59760
     59762     59761     59763     59765     59764     59766     59768     59767     59769
     59771     59770     59772     59774     59773     59775     59777     59776     59778
     59780     59779     59781     59783     59782     59784     59786     59785     59787
     59789     59788     59790     59792     59791     59793     59795     59794     59796
     59798     59797     59799     59801     59800     59802     59804     59803     59805
     59807     59806     59808     59810     59809     59811     59813     59812     59814
     59816     59815     59817     59819     59818     59820     59822     59821     59823
     59825     59824     59826     59828     59827     59829     59831     59830     59832
     59834     59833     59835     59837     59836     59838     59840     59839     59841
     59843     59842     59844     59846     59845     59847     59849     59848     59850
     59852     59851     59853     59855     59854     59856     59858     59857     59859
     59861     59860     59862     59864     59863     59865     59867     59866     59868
     59870     59869     59871     59873     59872     59874     59876     59875     59877
     59879     59878     59880     59882     59881     59883     59885     59884     59886
     59888     59887     59889     59891     59890     59892     59894     59893     59895
     59897     59896     59898     59900     59899     59901     59903     59902     59904
     59906     59905     59907     59909     59908     59910     59912     59911     59913
     59915     59914     59916     59918     59917     59919     59921     59920     59922
     59924     59923     59925     59927     59926     59928     59930     59929     59931
     59933     59932     59934     59936     59935     59937     59939     59938     59940
     59942     59941     59943     59945     59944     59946     59948     59947     59949
     59951     59950     59952     59954     59953     59955     59957     59956     59958
     59960     59959     59961     59963     59962     59964     59966     59965     59967
     59969     59968     59970     59972     59971     59973     59975     59974     59976
     59978     59977     59979     59981     59980     59982     59984     59983     59985
     59987     59986     59988     59990     59989     59991     59993     59992     59994
     59996     59995     59997     59999     59998     60000     60002     60001     60003
     60005     60004     60006     60008     60007     60009     60011     60010     60012
     60014     60013     60015     60017     60016     60018     60020     60019     60021
     60023     60022     60024     60026     60025     60027     60029     60028     60030
     60032     60031     60033     60035     60034     60036     60038     60037     60039
     60041     60040     60042     60044     60043     60045     60047     60046     60048
     60050     60049     60051     60053     60052     60054     60056     60055     60057
     60059     60058     60060     60062     60061     60063     60065     60064     60066
     60068     60067     60069     60071     60070     60072     60074     60073     60075
     60077     60076     60078     60080     60079     60081     60083     60082     60084
     60086     60085     60087     60089     60088     60090     60092     60091     60093
     60095     60094     60096     60098     60097     60099     60101     60100     60102
     60104     60103     60105     60107     60106     60108     60110     60109     60111
     60113     60112     60114     60116     60115     60117     60119     60118     60120
     60122     60121     60123     60125     60124     60126     60128     60127     60129
     60131     60130     60132     60134     60133     60135     60137     60136     60138
     60140     60139     60141     60143     60142     60144     60146     60145     60147
     60149     60148     60150     60152     60151     60153     60155     60154     60156
     60158     60157     60159     60161     60160     60162     60164     60163     60165
     60167     60166     60168     60170     60169     60171     60173     60172     60174
     60176     60175     60177     60179     60178     60180     60182     60181     60183
     60185     60184     60186     60188     60187     60189     60191     60190     60192
     60194     60193     60195     60197     60196     60198     60200     60199     60201
     60203     60202     60204     60206     60205     60207     60209     60208     60210
     60212     60211     60213     60215     60214     60216     60218     60217     60219
     60221     60220     60222     60224     60223     60225     60227     60226     60228
     60230     60229     60231     60233     60232     60234     60236     60235     60237
     60239     60238     60240     60242     60241     60243     60245     60244     60246
     60248     60247     60249     60251     60250     60252     60254     60253     60255
     60257     60256     60258     60260     60259     60261     60263     60262     60264
     60266     60265     60267     60269     60268     60270     60272     60271     60273
     60275     60274     60276     60278     60277     60279     60281     60280     60282
     60284     60283     60285     60287     60286     60288     60290     60289     60291
     60293     60292     60294     60296     60295     60297     60299     60298     60300
     60302     60301     60303     60305     60304     60306     60308     60307     60309
     60311     60310     60312     60314     60313     60315     60317     60316     60318
     60320     60319     60321     60323     60322     60324     60326     60325     60327
     60329     60328     60330     60332     60331     60333     60335     60334     60336
     60338     60337     60339     60341     60340     60342     60344     60343     60345
     60347     60346     60348     60350     60349     60351     60353     60352     60354
     60356     60355     60357     60359     60358     60360     60362     60361     60363
     60365     60364     60366     60368     60367     60369     60371     60370     60372
     60374     60373     60375     60377     60376     60378     60380     60379     60381
     60383     60382     60384     60386     60385     60387     60389     60388     60390
     60392     60391     60393     60395     60394     60396     60398     60397     60399
     60401     60400     60402     60404     60403     60405     60407     60406     60408
     60410     60409     60411     60413     60412     60414     60416     60415     60417
     60419     60418     60420     60422     60421     60423     60425     60424     60426
     60428     60427     60429     60431     60430     60432     60434     60433     60435
     60437     60436     60438     60440     60439     60441     60443     60442     60444
     60446     60445     60447     60449     60448     60450     60452     60451     60453
     60455     60454     60456     60458     60457     60459     60461     60460     60462
     60464     60463     60465     60467     60466     60468     60470     60469     60471
     60473     60472     60474     60476     60475     60477     60479     60478     60480
     60482     60481     60483     60485     60484     60486     60488     60487     60489
     60491     60490     60492     60494     60493     60495     60497     60496     60498
     60500     60499     60501     60503     60502     60504     60506     60505     60507
     60509     60508     60510     60512     60511     60513     60515     60514     60516
     60518     60517     60519     60521     60520     60522     60524     60523     60525
     60527     60526     60528     60530     60529     60531     60533     60532     60534
     60536     60535     60537     60539     60538     60540     60542     60541     60543
     60545     60544     60546     60548     60547     60549     60551     60550     60552
     60554     60553     60555     60557     60556     60558     60560     60559     60561
     60563     60562     60564     60566     60565     60567     60569     60568     60570
     60572     60571     60573     60575     60574     60576     60578     60577     60579
     60581     60580     60582     60584     60583     60585     60587     60586     60588
     60590     60589     60591     60593     60592     60594     60596     60595     60597
     60599     60598     60600     60602     60601     60603     60605     60604     60606
     60608     60607     60609     60611     60610     60612     60614     60613     60615
     60617     60616     60618     60620     60619     60621     60623     60622     60624
     60626     60625     60627     60629     60628     60630     60632     60631     60633
     60635     60634     60636     60638     60637     60639     60641     60640     60642
     60644     60643     60645     60647     60646     60648     60650     60649     60651
     60653     60652     60654     60656     60655     60657     60659     60658     60660
     60662     60661     60663     60665     60664     60666     60668     60667     60669
     60671     60670     60672     60674     60673     60675     60677     60676     60678
     60680     60679     60681     60683     60682     60684     60686     60685     60687
     60689     60688     60690     60692     60691     60693     60695     60694     60696
     60698     60697     60699     60701     60700     60702     60704     60703     60705
     60707     60706     60708     60710     60709     60711     60713     60712     60714
     60716     60715     60717     60719     60718     60720     60722     60721     60723
     60725     60724     60726     60728     60727     60729     60731     60730     60732
     60734     60733     60735     60737     60736     60738     60740     60739     60741
     60743     60742     60744     60746     60745     60747     60749     60748     60750
     60752     60751     60753     60755     60754     60756     60758     60757     60759
     60761     60760     60762     60764     60763     60765     60767     60766     60768
     60770     60769     60771     60773     60772     60774     60776     60775     60777
     60779     60778     60780     60782     60781     60783     60785     60784     60786
     60788     60787     60789     60791     60790     60792     60794     60793     60795
     60797     60796     60798     60800     60799     60801     60803     60802     60804
     60806     60805     60807     60809     60808     60810     60812     60811     60813
     60815     60814     60816     60818     60817     60819     60821     60820     60822
     60824     60823     60825     60827     60826     60828     60830     60829     60831
     60833     60832     60834     60836     60835     60837     60839     60838     60840
     60842     60841     60843     60845     60844     60846     60848     60847     60849
     60851     60850     60852     60854     60853     60855     60857     60856     60858
     60860     60859     60861     60863     60862     60864     60866     60865     60867
     60869     60868     60870     60872     60871     60873     60875     60874     60876
     60878     60877     60879     60881     60880     60882     60884     60883     60885
     60887     60886     60888     60890     60889     60891     60893     60892     60894
     60896     60895     60897     60899     60898     60900     60902     60901     60903
     60905     60904     60906     60908     60907     60909     60911     60910     60912
     60914     60913     60915     60917     60916     60918     60920     60919     60921
     60923     60922     60924     60926     60925     60927     60929     60928     60930
     60932     60931     60933     60935     60934     60936     60938     60937     60939
     60941     60940     60942     60944     60943     60945     60947     60946     60948
     60950     60949     60951     60953     60952     60954     60956     60955     60957
     60959     60958     60960     60962     60961     60963     60965     60964     60966
     60968     60967     60969     60971     60970     60972     60974     60973     60975
     60977     60976     60978     60980     60979     60981     60983     60982     60984
     60986     60985     60987     60989     60988     60990     60992     60991     60993
     60995     60994     60996     60998     60997     60999     61001     61000     61002
     61004     61003     61005     61007     61006     61008     61010     61009     61011
     61013     61012     61014     61016     61015     61017     61019     61018     61020
     61022     61021     61023     61025     61024     61026     61028     61027     61029
     61031     61030     61032     61034     61033     61035     61037     61036     61038
     61040     61039     61041     61043     61042     61044     61046     61045     61047
     61049     61048     61050     61052     61051     61053     61055     61054     61056
     61058     61057     61059     61061     61060     61062     61064     61063     61065
     61067     61066     61068     61070     61069     61071     61073     61072     61074
     61076     61075     61077     61079     61078     61080     61082     61081     61083
     61085     61084     61086     61088     61087     61089     61091     61090     61092
     61094     61093     61095     61097     61096     61098     61100     61099     61101
     61103     61102     61104     61106     61105     61107     61109     61108     61110
     61112     61111     61113     61115     61114     61116     61118     61117     61119
     61121     61120     61122     61124     61123     61125     61127     61126     61128
     61130     61129     61131     61133     61132     61134     61136     61135     61137
     61139     61138     61140     61142     61141     61143     61145     61144     61146
     61148     61147     61149     61151     61150     61152     61154     61153     61155
     61157     61156     61158     61160     61159     61161     61163     61162     61164
     61166     61165     61167     61169     61168     61170     61172     61171     61173
     61175     61174     61176     61178     61177     61179     61181     61180     61182
     61184     61183     61185     61187     61186     61188     61190     61189     61191
     61193     61192     61194     61196     61195     61197     61199     61198     61200
     61202     61201     61203     61205     61204     61206     61208     61207     61209
     61211     61210     61212     61214     61213     61215     61217     61216     61218
     61220     61219     61221     61223     61222     61224     61226     61225     61227
     61229     61228     61230     61232     61231     61233     61235     61234     61236
     61238     61237     61239     61241     61240     61242     61244     61243     61245
     61247     61246     61248     61250     61249     61251     61253     61252     61254
     61256     61255     61257     61259     61258     61260     61262     61261     61263
     61265     61264     61266     61268     61267     61269     61271     61270     61272
     61274     61273     61275     61277     61276     61278     61280     61279     61281
     61283     61282     61284     61286     61285     61287     61289     61288     61290
     61292     61291     61293     61295     61294     61296     61298     61297     61299
     61301     61300     61302     61304     61303     61305     61307     61306     61308
     61310     61309     61311     61313     61312     61314     61316     61315     61317
     61319     61318     61320     61322     61321     61323     61325     61324     61326
     61328     61327     61329     61331     61330     61332     61334     61333     61335
     61337     61336     61338     61340     61339     61341     61343     61342     61344
     61346     61345     61347     61349     61348     61350     61352     61351     61353
     61355     61354     61356     61358     61357     61359     61361     61360     61362
     61364     61363     61365     61367     61366     61368     61370     61369     61371
     61373     61372     61374     61376     61375     61377     61379     61378     61380
     61382     61381     61383     61385     61384     61386     61388     61387     61389
     61391     61390     61392     61394     61393     61395     61397     61396     61398
     61400     61399     61401     61403     61402     61404     61406     61405     61407
     61409     61408     61410     61412     61411     61413     61415     61414     61416
     61418     61417     61419     61421     61420     61422     61424     61423     61425
     61427     61426     61428     61430     61429     61431     61433     61432     61434
     61436     61435     61437     61439     61438     61440     61442     61441     61443
     61445     61444     61446     61448     61447     61449     61451     61450     61452
     61454     61453     61455     61457     61456     61458     61460     61459     61461
     61463     61462     61464     61466     61465     61467     61469     61468     61470
     61472     61471     61473     61475     61474     61476     61478     61477     61479
     61481     61480     61482     61484     61483     61485     61487     61486     61488
     61490     61489     61491     61493     61492     61494     61496     61495     61497
     61499     61498     61500     61502     61501     61503     61505     61504     61506
     61508     61507     61509     61511     61510     61512     61514     61513     61515
     61517     61516     61518     61520     61519     61521     61523     61522     61524
     61526     61525     61527     61529     61528     61530     61532     61531     61533
     61535     61534     61536     61538     61537     61539     61541     61540     61542
     61544     61543     61545     61547     61546     61548     61550     61549     61551
     61553     61552     61554     61556     61555     61557     61559     61558     61560
     61562     61561     61563     61565     61564     61566     61568     61567     61569
     61571     61570     61572     61574     61573     61575     61577     61576     61578
     61580     61579     61581     61583     61582     61584     61586     61585     61587
     61589     61588     61590     61592     61591     61593     61595     61594     61596
     61598     61597     61599     61601     61600     61602     61604     61603     61605
     61607     61606     61608     61610     61609     61611     61613     61612     61614
     61616     61615     61617     61619     61618     61620     61622     61621     61623
     61625     61624     61626     61628     61627     61629     61631     61630     61632
     61634     61633     61635     61637     61636     61638     61640     61639     61641
     61643     61642     61644     61646     61645     61647     61649     61648     61650
     61652     61651     61653     61655     61654     61656     61658     61657     61659
     61661     61660     61662     61664     61663     61665     61667     61666     61668
     61670     61669     61671     61673     61672     61674     61676     61675     61677
     61679     61678     61680     61682     61681     61683     61685     61684     61686
     61688     61687     61689     61691     61690     61692     61694     61693     61695
     61697     61696     61698     61700     61699     61701     61703     61702     61704
     61706     61705     61707     61709     61708     61710     61712     61711     61713
     61715     61714     61716     61718     61717     61719     61721     61720     61722
     61724     61723     61725     61727     61726     61728     61730     61729     61731
     61733     61732     61734     61736     61735     61737     61739     61738     61740
     61742     61741     61743     61745     61744     61746     61748     61747     61749
     61751     61750     61752     61754     61753     61755     61757     61756     61758
     61760     61759     61761     61763     61762     61764     61766     61765     61767
     61769     61768     61770     61772     61771     61773     61775     61774     61776
     61778     61777     61779     61781     61780     61782     61784     61783     61785
     61787     61786     61788     61790     61789     61791     61793     61792     61794
     61796     61795     61797     61799     61798     61800     61802     61801     61803
     61805     61804     61806     61808     61807     61809     61811     61810     61812
     61814     61813     61815     61817     61816     61818     61820     61819     61821
     61823     61822     61824     61826     61825     61827     61829     61828     61830
     61832     61831     61833     61835     61834     61836     61838     61837     61839
     61841     61840     61842     61844     61843     61845     61847     61846     61848
     61850     61849     61851     61853     61852     61854     61856     61855     61857
     61859     61858     61860     61862     61861     61863     61865     61864     61866
     61868     61867     61869     61871     61870     61872     61874     61873     61875
     61877     61876     61878     61880     61879     61881     61883     61882     61884
     61886     61885     61887     61889     61888     61890     61892     61891     61893
     61895     61894     61896     61898     61897     61899     61901     61900     61902
     61904     61903     61905     61907     61906     61908     61910     61909     61911
     61913     61912     61914     61916     61915     61917     61919     61918     61920
     61922     61921     61923     61925     61924     61926     61928     61927     61929
     61931     61930     61932     61934     61933     61935     61937     61936     61938
     61940     61939     61941     61943     61942     61944     61946     61945     61947
     61949     61948     61950     61952     61951     61953     61955     61954     61956
     61958     61957     61959     61961     61960     61962     61964     61963     61965
     61967     61966     61968     61970     61969     61971     61973     61972     61974
     61976     61975     61977     61979     61978     61980     61982     61981     61983
     61985     61984     61986     61988     61987     61989     61991     61990     61992
     61994     61993     61995     61997     61996     61998     62000     61999     62001
     62003     62002     62004     62006     62005     62007     62009     62008     62010
     62012     62011     62013     62015     62014     62016     62018     62017     62019
     62021     62020     62022     62024     62023     62025     62027     62026     62028
     62030     62029     62031     62033     62032     62034     62036     62035     62037
     62039     62038     62040     62042     62041     62043     62045     62044     62046
     62048     62047     62049     62051     62050     62052     62054     62053     62055
     62057     62056     62058     62060     62059     62061     62063     62062     62064
     62066     62065     62067     62069     62068     62070     62072     62071     62073
     62075     62074     62076     62078     62077     62079     62081     62080     62082
     62084     62083     62085     62087     62086     62088     62090     62089     62091
     62093     62092     62094     62096     62095     62097     62099     62098     62100
     62102     62101     62103     62105     62104     62106     62108     62107     62109
     62111     62110     62112     62114     62113     62115     62117     62116     62118
     62120     62119     62121     62123     62122     62124     62126     62125     62127
     62129     62128     62130     62132     62131     62133     62135     62134     62136
     62138     62137     62139     62141     62140     62142     62144     62143     62145
     62147     62146     62148     62150     62149     62151     62153     62152     62154
     62156     62155     62157     62159     62158     62160     62162     62161     62163
     62165     62164     62166     62168     62167     62169     62171     62170     62172
     62174     62173     62175     62177     62176     62178     62180     62179     62181
     62183     62182     62184     62186     62185     62187     62189     62188     62190
     62192     62191     62193     62195     62194     62196     62198     62197     62199
     62201     62200     62202     62204     62203     62205     62207     62206     62208
     62210     62209     62211     62213     62212     62214     62216     62215     62217
     62219     62218     62220     62222     62221     62223     62225     62224     62226
     62228     62227     62229     62231     62230     62232     62234     62233     62235
     62237     62236     62238     62240     62239     62241     62243     62242     62244
     62246     62245     62247     62249     62248     62250     62252     62251     62253
     62255     62254     62256     62258     62257     62259     62261     62260     62262
     62264     62263     62265     62267     62266     62268     62270     62269     62271
     62273     62272     62274     62276     62275     62277     62279     62278     62280
     62282     62281     62283     62285     62284     62286     62288     62287     62289
     62291     62290     62292     62294     62293     62295     62297     62296     62298
     62300     62299     62301     62303     62302     62304     62306     62305     62307
     62309     62308     62310     62312     62311     62313     62315     62314     62316
     62318     62317     62319     62321     62320     62322     62324     62323     62325
     62327     62326     62328     62330     62329     62331     62333     62332     62334
     62336     62335     62337     62339     62338     62340     62342     62341     62343
     62345     62344     62346     62348     62347     62349     62351     62350     62352
     62354     62353     62355     62357     62356     62358     62360     62359     62361
     62363     62362     62364     62366     62365     62367     62369     62368     62370
     62372     62371     62373     62375     62374     62376     62378     62377     62379
     62381     62380     62382     62384     62383     62385     62387     62386     62388
     62390     62389     62391     62393     62392     62394     62396     62395     62397
     62399     62398     62400     62402     62401     62403     62405     62404     62406
     62408     62407     62409     62411     62410     62412     62414     62413     62415
     62417     62416     62418     62420     62419     62421     62423     62422     62424
     62426     62425     62427     62429     62428     62430     62432     62431     62433
     62435     62434     62436     62438     62437     62439     62441     62440     62442
     62444     62443     62445     62447     62446     62448     62450     62449     62451
     62453     62452     62454     62456     62455     62457     62459     62458     62460
     62462     62461     62463     62465     62464     62466     62468     62467     62469
     62471     62470     62472     62474     62473     62475     62477     62476     62478
     62480     62479     62481     62483     62482     62484     62486     62485     62487
     62489     62488     62490     62492     62491     62493     62495     62494     62496
     62498     62497     62499     62501     62500     62502     62504     62503     62505
     62507     62506     62508     62510     62509     62511     62513     62512     62514
     62516     62515     62517     62519     62518     62520     62522     62521     62523
     62525     62524     62526     62528     62527     62529     62531     62530     62532
     62534     62533     62535     62537     62536     62538     62540     62539     62541
     62543     62542     62544     62546     62545     62547     62549     62548     62550
     62552     62551     62553     62555     62554     62556     62558     62557     62559
     62561     62560     62562     62564     62563     62565     62567     62566     62568
     62570     62569     62571     62573     62572     62574     62576     62575     62577
     62579     62578     62580     62582     62581     62583     62585     62584     62586
     62588     62587     62589     62591     62590     62592     62594     62593     62595
     62597     62596     62598     62600     62599     62601     62603     62602     62604
     62606     62605     62607     62609     62608     62610     62612     62611     62613
     62615     62614     62616     62618     62617     62619     62621     62620     62622
     62624     62623     62625     62627     62626     62628     62630     62629     62631
     62633     62632     62634     62636     62635     62637     62639     62638     62640
     62642     62641     62643     62645     62644     62646     62648     62647     62649
     62651     62650     62652     62654     62653     62655     62657     62656     62658
     62660     62659     62661     62663     62662     62664     62666     62665     62667
     62669     62668     62670     62672     62671     62673     62675     62674     62676
     62678     62677     62679     62681     62680     62682     62684     62683     62685
     62687     62686     62688     62690     62689     62691     62693     62692     62694
     62696     62695     62697     62699     62698     62700     62702     62701     62703
     62705     62704     62706     62708     62707     62709     62711     62710     62712
     62714     62713     62715     62717     62716     62718     62720     62719     62721
     62723     62722     62724     62726     62725     62727     62729     62728     62730
     62732     62731     62733     62735     62734     62736     62738     62737     62739
     62741     62740     62742     62744     62743     62745     62747     62746     62748
     62750     62749     62751     62753     62752     62754     62756     62755     62757
     62759     62758     62760     62762     62761     62763     62765     62764     62766
     62768     62767     62769     62771     62770     62772     62774     62773     62775
     62777     62776     62778     62780     62779     62781     62783     62782     62784
     62786     62785     62787     62789     62788     62790     62792     62791     62793
     62795     62794     62796     62798     62797     62799     62801     62800     62802
     62804     62803     62805     62807     62806     62808     62810     62809     62811
     62813     62812     62814     62816     62815     62817     62819     62818     62820
     62822     62821     62823     62825     62824     62826     62828     62827     62829
     62831     62830     62832     62834     62833     62835     62837     62836     62838
     62840     62839     62841     62843     62842     62844     62846     62845     62847
     62849     62848     62850     62852     62851     62853     62855     62854     62856
     62858     62857     62859     62861     62860     62862     62864     62863     62865
     62867     62866     62868     62870     62869     62871     62873     62872     62874
     62876     62875     62877     62879     62878     62880     62882     62881     62883
     62885     62884     62886     62888     62887     62889     62891     62890     62892
     62894     62893     62895     62897     62896     62898     62900     62899     62901
     62903     62902     62904     62906     62905     62907     62909     62908     62910
     62912     62911     62913     62915     62914     62916     62918     62917     62919
     62921     62920     62922     62924     62923     62925     62927     62926     62928
     62930     62929     62931     62933     62932     62934     62936     62935     62937
     62939     62938     62940     62942     62941     62943     62945     62944     62946
     62948     62947     62949     62951     62950     62952     62954     62953     62955
     62957     62956     62958     62960     62959     62961     62963     62962     62964
     62966     62965     62967     62969     62968     62970     62972     62971     62973
     62975     62974     62976     62978     62977     62979     62981     62980     62982
     62984     62983     62985     62987     62986     62988     62990     62989     62991
     62993     62992     62994     62996     62995     62997     62999     62998     63000
     63002     63001     63003     63005     63004     63006     63008     63007     63009
     63011     63010     63012     63014     63013     63015     63017     63016     63018
     63020     63019     63021     63023     63022     63024     63026     63025     63027
     63029     63028     63030     63032     63031     63033     63035     63034     63036
     63038     63037     63039     63041     63040     63042     63044     63043     63045
     63047     63046     63048     63050     63049     63051     63053     63052     63054
     63056     63055     63057     63059     63058     63060     63062     63061     63063
     63065     63064     63066     63068     63067     63069     63071     63070     63072
     63074     63073     63075     63077     63076     63078     63080     63079     63081
     63083     63082     63084     63086     63085     63087     63089     63088     63090
     63092     63091     63093     63095     63094     63096     63098     63097     63099
     63101     63100     63102     63104     63103     63105     63107     63106     63108
     63110     63109     63111     63113     63112     63114     63116     63115     63117
     63119     63118     63120     63122     63121     63123     63125     63124     63126
     63128     63127     63129     63131     63130     63132     63134     63133     63135
     63137     63136     63138     63140     63139     63141     63143     63142     63144
     63146     63145     63147     63149     63148     63150     63152     63151     63153
     63155     63154     63156     63158     63157     63159     63161     63160     63162
     63164     63163     63165     63167     63166     63168     63170     63169     63171
     63173     63172     63174     63176     63175     63177     63179     63178     63180
     63182     63181     63183     63185     63184     63186     63188     63187     63189
     63191     63190     63192     63194     63193     63195     63197     63196     63198
     63200     63199     63201     63203     63202     63204     63206     63205     63207
     63209     63208     63210     63212     63211     63213     63215     63214     63216
     63218     63217     63219     63221     63220     63222     63224     63223     63225
     63227     63226     63228     63230     63229     63231     63233     63232     63234
     63236     63235     63237     63239     63238     63240     63242     63241     63243
     63245     63244     63246     63248     63247     63249     63251     63250     63252
     63254     63253     63255     63257     63256     63258     63260     63259     63261
     63263     63262     63264     63266     63265     63267     63269     63268     63270
     63272     63271     63273     63275     63274     63276     63278     63277     63279
     63281     63280     63282     63284     63283     63285     63287     63286     63288
     63290     63289     63291     63293     63292     63294     63296     63295     63297
     63299     63298     63300     63302     63301     63303     63305     63304     63306
     63308     63307     63309     63311     63310     63312     63314     63313     63315
     63317     63316     63318     63320     63319     63321     63323     63322     63324
     63326     63325     63327     63329     63328     63330     63332     63331     63333
     63335     63334     63336     63338     63337     63339     63341     63340     63342
     63344     63343     63345     63347     63346     63348     63350     63349     63351
     63353     63352     63354     63356     63355     63357     63359     63358     63360
     63362     63361     63363     63365     63364     63366     63368     63367     63369
     63371     63370     63372     63374     63373     63375     63377     63376     63378
     63380     63379     63381     63383     63382     63384     63386     63385     63387
     63389     63388     63390     63392     63391     63393     63395     63394     63396
     63398     63397     63399     63401     63400     63402     63404     63403     63405
     63407     63406     63408     63410     63409     63411     63413     63412     63414
     63416     63415     63417     63419     63418     63420     63422     63421     63423
     63425     63424     63426     63428     63427     63429     63431     63430     63432
     63434     63433     63435     63437     63436     63438     63440     63439     63441
     63443     63442     63444     63446     63445     63447     63449     63448     63450
     63452     63451     63453     63455     63454     63456     63458     63457     63459
     63461     63460     63462     63464     63463     63465     63467     63466     63468
     63470     63469     63471     63473     63472     63474     63476     63475     63477
     63479     63478     63480     63482     63481     63483     63485     63484     63486
     63488     63487     63489     63491     63490     63492     63494     63493     63495
     63497     63496     63498     63500     63499     63501     63503     63502     63504
     63506     63505     63507     63509     63508     63510     63512     63511     63513
     63515     63514     63516     63518     63517     63519     63521     63520     63522
     63524     63523     63525     63527     63526     63528     63530     63529     63531
     63533     63532     63534     63536     63535     63537     63539     63538     63540
     63542     63541     63543     63545     63544     63546     63548     63547     63549
     63551     63550     63552     63554     63553     63555     63557     63556     63558
     63560     63559     63561     63563     63562     63564     63566     63565     63567
     63569     63568     63570     63572     63571     63573     63575     63574     63576
     63578     63577     63579     63581     63580     63582     63584     63583     63585
     63587     63586     63588     63590     63589     63591     63593     63592     63594
     63596     63595     63597     63599     63598     63600     63602     63601     63603
     63605     63604     63606     63608     63607     63609     63611     63610     63612
     63614     63613     63615     63617     63616     63618     63620     63619     63621
     63623     63622     63624     63626     63625     63627     63629     63628     63630
     63632     63631     63633     63635     63634     63636     63638     63637     63639
     63641     63640     63642     63644     63643     63645     63647     63646     63648
     63650     63649     63651     63653     63652     63654     63656     63655     63657
     63659     63658     63660     63662     63661     63663     63665     63664     63666
     63668     63667     63669     63671     63670     63672     63674     63673     63675
     63677     63676     63678     63680     63679     63681     63683     63682     63684
     63686     63685     63687     63689     63688     63690     63692     63691     63693
     63695     63694     63696     63698     63697     63699     63701     63700     63702
     63704     63703     63705     63707     63706     63708     63710     63709     63711
     63713     63712     63714     63716     63715     63717     63719     63718     63720
     63722     63721     63723     63725     63724     63726     63728     63727     63729
     63731     63730     63732     63734     63733     63735     63737     63736     63738
     63740     63739     63741     63743     63742     63744     63746     63745     63747
     63749     63748     63750     63752     63751     63753     63755     63754     63756
     63758     63757     63759     63761     63760     63762     63764     63763     63765
     63767     63766     63768     63770     63769     63771     63773     63772     63774
     63776     63775     63777     63779     63778     63780     63782     63781     63783
     63785     63784     63786     63788     63787     63789     63791     63790     63792
     63794     63793     63795     63797     63796     63798     63800     63799     63801
     63803     63802     63804     63806     63805     63807     63809     63808     63810
     63812     63811     63813     63815     63814     63816     63818     63817     63819
     63821     63820     63822     63824     63823     63825     63827     63826     63828
     63830     63829     63831     63833     63832     63834     63836     63835     63837
     63839     63838     63840     63842     63841     63843     63845     63844     63846
     63848     63847     63849     63851     63850     63852     63854     63853     63855
     63857     63856     63858     63860     63859     63861     63863     63862     63864
     63866     63865     63867     63869     63868     63870     63872     63871     63873
     63875     63874     63876     63878     63877     63879     63881     63880     63882
     63884     63883     63885     63887     63886     63888     63890     63889     63891
     63893     63892     63894     63896     63895     63897     63899     63898     63900
     63902     63901     63903     63905     63904     63906     63908     63907     63909
     63911     63910     63912     63914     63913     63915     63917     63916     63918
     63920     63919     63921     63923     63922     63924     63926     63925     63927
     63929     63928     63930     63932     63931     63933     63935     63934     63936
     63938     63937     63939     63941     63940     63942     63944     63943     63945
     63947     63946     63948     63950     63949     63951     63953     63952     63954
     63956     63955     63957     63959     63958     63960     63962     63961     63963
     63965     63964     63966     63968     63967     63969     63971     63970     63972
     63974     63973     63975     63977     63976     63978     63980     63979     63981
     63983     63982     63984     63986     63985     63987     63989     63988     63990
     63992     63991     63993     63995     63994     63996     63998     63997     63999
     64001     64000     64002     64004     64003     64005     64007     64006     64008
     64010     64009     64011     64013     64012     64014     64016     64015     64017
     64019     64018     64020     64022     64021     64023     64025     64024     64026
     64028     64027     64029     64031     64030     64032     64034     64033     64035
     64037     64036     64038     64040     64039     64041     64043     64042     64044
     64046     64045     64047     64049     64048     64050     64052     64051     64053
     64055     64054     64056     64058     64057     64059     64061     64060     64062
     64064     64063     64065     64067     64066     64068     64070     64069     64071
     64073     64072     64074     64076     64075     64077     64079     64078     64080
     64082     64081     64083     64085     64084     64086     64088     64087     64089
     64091     64090     64092     64094     64093     64095     64097     64096     64098
     64100     64099     64101     64103     64102     64104     64106     64105     64107
     64109     64108     64110     64112     64111     64113     64115     64114     64116
     64118     64117     64119     64121     64120     64122     64124     64123     64125
     64127     64126     64128     64130     64129     64131     64133     64132     64134
     64136     64135     64137     64139     64138     64140     64142     64141     64143
     64145     64144     64146     64148     64147     64149     64151     64150     64152
     64154     64153     64155     64157     64156     64158     64160     64159     64161
     64163     64162     64164     64166     64165     64167     64169     64168     64170
     64172     64171     64173     64175     64174     64176     64178     64177     64179
     64181     64180     64182     64184     64183     64185     64187     64186     64188
     64190     64189     64191     64193     64192     64194     64196     64195     64197
     64199     64198     64200     64202     64201     64203     64205     64204     64206
     64208     64207     64209     64211     64210     64212     64214     64213     64215
     64217     64216     64218     64220     64219     64221     64223     64222     64224
     64226     64225     64227     64229     64228     64230     64232     64231     64233
     64235     64234     64236     64238     64237     64239     64241     64240     64242
     64244     64243     64245     64247     64246     64248     64250     64249     64251
     64253     64252     64254     64256     64255     64257     64259     64258     64260
     64262     64261     64263     64265     64264     64266     64268     64267     64269
     64271     64270     64272     64274     64273     64275     64277     64276     64278
     64280     64279     64281     64283     64282     64284     64286     64285     64287
     64289     64288     64290     64292     64291     64293     64295     64294     64296
     64298     64297     64299     64301     64300     64302     64304     64303     64305
     64307     64306     64308     64310     64309     64311     64313     64312     64314
     64316     64315     64317     64319     64318     64320     64322     64321     64323
     64325     64324     64326     64328     64327     64329     64331     64330     64332
     64334     64333     64335     64337     64336     64338     64340     64339     64341
     64343     64342     64344     64346     64345     64347     64349     64348     64350
     64352     64351     64353     64355     64354     64356     64358     64357     64359
     64361     64360     64362     64364     64363     64365     64367     64366     64368
     64370     64369     64371     64373     64372     64374     64376     64375     64377
     64379     64378     64380     64382     64381     64383     64385     64384     64386
     64388     64387     64389     64391     64390     64392     64394     64393     64395
     64397     64396     64398     64400     64399     64401     64403     64402     64404
     64406     64405     64407     64409     64408     64410     64412     64411     64413
     64415     64414     64416     64418     64417     64419     64421     64420     64422
     64424     64423     64425     64427     64426     64428     64430     64429     64431
     64433     64432     64434     64436     64435     64437     64439     64438     64440
     64442     64441     64443     64445     64444     64446     64448     64447     64449
     64451     64450     64452     64454     64453     64455     64457     64456     64458
     64460     64459     64461     64463     64462     64464     64466     64465     64467
     64469     64468     64470     64472     64471     64473     64475     64474     64476
     64478     64477     64479     64481     64480     64482     64484     64483     64485
     64487     64486     64488     64490     64489     64491     64493     64492     64494
     64496     64495     64497     64499     64498     64500     64502     64501     64503
     64505     64504     64506     64508     64507     64509     64511     64510     64512
     64514     64513     64515     64517     64516     64518     64520     64519     64521
     64523     64522     64524     64526     64525     64527     64529     64528     64530
     64532     64531     64533     64535     64534     64536     64538     64537     64539
     64541     64540     64542     64544     64543     64545     64547     64546     64548
     64550     64549     64551     64553     64552     64554     64556     64555     64557
     64559     64558     64560     64562     64561     64563     64565     64564     64566
     64568     64567     64569     64571     64570     64572     64574     64573     64575
     64577     64576     64578     64580     64579     64581     64583     64582     64584
     64586     64585     64587     64589     64588     64590     64592     64591     64593
     64595     64594     64596     64598     64597     64599     64601     64600     64602
     64604     64603     64605     64607     64606     64608     64610     64609     64611
     64613     64612     64614     64616     64615     64617     64619     64618     64620
     64622     64621     64623     64625     64624     64626     64628     64627     64629
     64631     64630     64632     64634     64633     64635     64637     64636     64638
     64640     64639     64641     64643     64642     64644     64646     64645     64647
     64649     64648     64650     64652     64651     64653     64655     64654     64656
     64658     64657     64659     64661     64660     64662     64664     64663     64665
     64667     64666     64668     64670     64669     64671     64673     64672     64674
     64676     64675     64677     64679     64678     64680     64682     64681     64683
     64685     64684     64686     64688     64687     64689     64691     64690     64692
     64694     64693     64695     64697     64696     64698     64700     64699     64701
     64703     64702     64704     64706     64705     64707     64709     64708     64710
     64712     64711     64713     64715     64714     64716     64718     64717     64719
     64721     64720     64722     64724     64723     64725     64727     64726     64728
     64730     64729     64731     64733     64732     64734     64736     64735     64737
     64739     64738     64740     64742     64741     64743     64745     64744     64746
     64748     64747     64749     64751     64750     64752     64754     64753     64755
     64757     64756     64758     64760     64759     64761     64763     64762     64764
     64766     64765     64767     64769     64768     64770     64772     64771     64773
     64775     64774     64776     64778     64777     64779     64781     64780     64782
     64784     64783     64785     64787     64786     64788     64790     64789     64791
     64793     64792     64794     64796     64795     64797     64799     64798     64800
     64802     64801     64803     64805     64804     64806     64808     64807     64809
     64811     64810     64812     64814     64813     64815     64817     64816     64818
     64820     64819     64821     64823     64822     64824     64826     64825     64827
     64829     64828     64830     64832     64831     64833     64835     64834     64836
     64838     64837     64839     64841     64840     64842     64844     64843     64845
     64847     64846     64848     64850     64849     64851     64853     64852     64854
     64856     64855     64857     64859     64858     64860     64862     64861     64863
     64865     64864     64866     64868     64867     64869     64871     64870     64872
     64874     64873     64875     64877     64876     64878     64880     64879     64881
     64883     64882     64884     64886     64885     64887     64889     64888     64890
     64892     64891     64893     64895     64894     64896     64898     64897     64899
     64901     64900     64902     64904     64903     64905     64907     64906     64908
     64910     64909     64911     64913     64912     64914     64916     64915     64917
     64919     64918     64920     64922     64921     64923     64925     64924     64926
     64928     64927     64929     64931     64930     64932     64934     64933     64935
     64937     64936     64938     64940     64939     64941     64943     64942     64944
     64946     64945     64947     64949     64948     64950     64952     64951     64953
     64955     64954     64956     64958     64957     64959     64961     64960     64962
     64964     64963     64965     64967     64966     64968     64970     64969     64971
     64973     64972     64974     64976     64975     64977     64979     64978     64980
     64982     64981     64983     64985     64984     64986     64988     64987     64989
     64991     64990     64992     64994     64993     64995     64997     64996     64998
     65000     64999     65001     65003     65002     65004     65006     65005     65007
     65009     65008     65010     65012     65011     65013     65015     65014     65016
     65018     65017     65019     65021     65020     65022     65024     65023     65025
     65027     65026     65028     65030     65029     65031     65033     65032     65034
     65036     65035     65037     65039     65038     65040     65042     65041     65043
     65045     65044     65046     65048     65047     65049     65051     65050     65052
     65054     65053     65055     65057     65056     65058     65060     65059     65061
     65063     65062     65064     65066     65065     65067     65069     65068     65070
     65072     65071     65073     65075     65074     65076     65078     65077     65079
     65081     65080     65082     65084     65083     65085     65087     65086     65088
     65090     65089     65091     65093     65092     65094     65096     65095     65097
     65099     65098     65100     65102     65101     65103     65105     65104     65106
     65108     65107     65109     65111     65110     65112     65114     65113     65115
     65117     65116     65118     65120     65119     65121     65123     65122     65124
     65126     65125     65127     65129     65128     65130     65132     65131     65133
     65135     65134     65136     65138     65137     65139     65141     65140     65142
     65144     65143     65145     65147     65146     65148     65150     65149     65151
     65153     65152     65154     65156     65155     65157     65159     65158     65160
     65162     65161     65163     65165     65164     65166     65168     65167     65169
     65171     65170     65172     65174     65173     65175     65177     65176     65178
     65180     65179     65181     65183     65182     65184     65186     65185     65187
     65189     65188     65190     65192     65191     65193     65195     65194     65196
     65198     65197     65199     65201     65200     65202     65204     65203     65205
     65207     65206     65208     65210     65209     65211     65213     65212     65214
     65216     65215     65217     65219     65218     65220     65222     65221     65223
     65225     65224     65226     65228     65227     65229     65231     65230     65232
     65234     65233     65235     65237     65236     65238     65240     65239     65241
     65243     65242     65244     65246     65245     65247     65249     65248     65250
     65252     65251     65253     65255     65254     65256     65258     65257     65259
     65261     65260     65262     65264     65263     65265     65267     65266     65268
     65270     65269     65271     65273     65272     65274     65276     65275     65277
     65279     65278     65280     65282     65281     65283     65285     65284     65286
     65288     65287     65289     65291     65290     65292     65294     65293     65295
     65297     65296     65298     65300     65299     65301     65303     65302     65304
     65306     65305     65307     65309     65308     65310     65312     65311     65313
     65315     65314     65316     65318     65317     65319     65321     65320     65322
     65324     65323     65325     65327     65326     65328     65330     65329     65331
     65333     65332     65334     65336     65335     65337     65339     65338     65340
     65342     65341     65343     65345     65344     65346     65348     65347     65349
     65351     65350     65352     65354     65353     65355     65357     65356     65358
     65360     65359     65361     65363     65362     65364     65366     65365     65367
     65369     65368     65370     65372     65371     65373     65375     65374     65376
     65378     65377     65379     65381     65380     65382     65384     65383     65385
     65387     65386     65388     65390     65389     65391     65393     65392     65394
     65396     65395     65397     65399     65398     65400     65402     65401     65403
     65405     65404     65406     65408     65407     65409     65411     65410     65412
     65414     65413     65415     65417     65416     65418     65420     65419     65421
     65423     65422     65424     65426     65425     65427     65429     65428     65430
     65432     65431     65433     65435     65434     65436     65438     65437     65439
     65441     65440     65442     65444     65443     65445     65447     65446     65448
     65450     65449     65451     65453     65452     65454     65456     65455     65457
     65459     65458     65460     65462     65461     65463     65465     65464     65466
     65468     65467     65469     65471     65470     65472     65474     65473     65475
     65477     65476     65478     65480     65479     65481     65483     65482     65484
     65486     65485     65487     65489     65488     65490     65492     65491     65493
     65495     65494     65496     65498     65497     65499     65501     65500     65502
     65504     65503     65505     65507     65506     65508     65510     65509     65511
     65513     65512     65514     65516     65515     65517     65519     65518     65520
     65522     65521     65523     65525     65524     65526     65528     65527     65529
     65531     65530     65532     65534     65533     65535     65537     65536     65538
     65540     65539     65541     65543     65542     65544     65546     65545     65547
     65549     65548     65550     65552     65551     65553     65555     65554     65556
     65558     65557     65559     65561     65560     65562     65564     65563     65565
     65567     65566     65568     65570     65569     65571     65573     65572     65574
     65576     65575     65577     65579     65578     65580     65582     65581     65583
     65585     65584     65586     65588     65587     65589     65591     65590     65592
     65594     65593     65595     65597     65596     65598     65600     65599     65601
     65603     65602     65604     65606     65605     65607     65609     65608     65610
     65612     65611     65613     65615     65614     65616     65618     65617     65619
     65621     65620     65622     65624     65623     65625     65627     65626     65628
     65630     65629     65631     65633     65632     65634     65636     65635     65637
     65639     65638     65640     65642     65641     65643     65645     65644     65646
     65648     65647     65649     65651     65650     65652     65654     65653     65655
     65657     65656     65658     65660     65659     65661     65663     65662     65664
     65666     65665     65667     65669     65668     65670     65672     65671     65673
     65675     65674     65676     65678     65677     65679     65681     65680     65682
     65684     65683     65685     65687     65686     65688     65690     65689     65691
     65693     65692     65694     65696     65695     65697     65699     65698     65700
     65702     65701     65703     65705     65704     65706     65708     65707     65709
     65711     65710     65712     65714     65713     65715     65717     65716     65718
     65720     65719     65721     65723     65722     65724     65726     65725     65727
     65729     65728     65730     65732     65731     65733     65735     65734     65736
     65738     65737     65739     65741     65740     65742     65744     65743     65745
     65747     65746     65748     65750     65749     65751     65753     65752     65754
     65756     65755     65757     65759     65758     65760     65762     65761     65763
     65765     65764     65766     65768     65767     65769     65771     65770     65772
     65774     65773     65775     65777     65776     65778     65780     65779     65781
     65783     65782     65784     65786     65785     65787     65789     65788     65790
     65792     65791     65793     65795     65794     65796     65798     65797     65799
     65801     65800     65802     65804     65803     65805     65807     65806     65808
     65810     65809     65811     65813     65812     65814     65816     65815     65817
     65819     65818     65820     65822     65821     65823     65825     65824     65826
     65828     65827     65829     65831     65830     65832     65834     65833     65835
     65837     65836     65838     65840     65839     65841     65843     65842     65844
     65846     65845     65847     65849     65848     65850     65852     65851     65853
     65855     65854     65856     65858     65857     65859     65861     65860     65862
     65864     65863     65865     65867     65866     65868     65870     65869     65871
     65873     65872     65874     65876     65875     65877     65879     65878     65880
     65882     65881     65883     65885     65884     65886     65888     65887     65889
     65891     65890     65892     65894     65893     65895     65897     65896     65898
     65900     65899     65901     65903     65902     65904     65906     65905     65907
     65909     65908     65910     65912     65911     65913     65915     65914     65916
     65918     65917     65919     65921     65920     65922     65924     65923     65925
     65927     65926     65928     65930     65929     65931     65933     65932     65934
     65936     65935     65937     65939     65938     65940     65942     65941     65943
     65945     65944     65946     65948     65947     65949     65951     65950     65952
     65954     65953     65955     65957     65956     65958     65960     65959     65961
     65963     65962     65964     65966     65965     65967     65969     65968     65970
     65972     65971     65973     65975     65974     65976     65978     65977     65979
     65981     65980     65982     65984     65983     65985     65987     65986     65988
     65990     65989     65991     65993     65992     65994     65996     65995     65997
     65999     65998     66000     66002     66001     66003     66005     66004     66006
     66008     66007     66009     66011     66010     66012     66014     66013     66015
     66017     66016     66018     66020     66019     66021     66023     66022     66024
     66026     66025     66027     66029     66028     66030     66032     66031     66033
     66035     66034     66036     66038     66037     66039     66041     66040     66042
     66044     66043     66045     66047     66046     66048     66050     66049     66051
     66053     66052     66054     66056     66055     66057     66059     66058     66060
     66062     66061     66063     66065     66064     66066     66068     66067     66069
     66071     66070     66072     66074     66073     66075     66077     66076     66078
     66080     66079     66081     66083     66082     66084     66086     66085     66087
     66089     66088     66090     66092     66091     66093     66095     66094     66096
     66098     66097     66099     66101     66100     66102     66104     66103     66105
     66107     66106     66108     66110     66109     66111     66113     66112     66114
     66116     66115     66117     66119     66118     66120     66122     66121     66123
     66125     66124     66126     66128     66127     66129     66131     66130     66132
     66134     66133     66135     66137     66136     66138     66140     66139     66141
     66143     66142     66144     66146     66145     66147     66149     66148     66150
     66152     66151     66153     66155     66154     66156     66158     66157     66159
     66161     66160     66162     66164     66163     66165     66167     66166     66168
     66170     66169     66171     66173     66172     66174     66176     66175     66177
     66179     66178     66180     66182     66181     66183     66185     66184     66186
     66188     66187     66189     66191     66190     66192     66194     66193     66195
     66197     66196     66198     66200     66199     66201     66203     66202     66204
     66206     66205     66207     66209     66208     66210     66212     66211     66213
     66215     66214     66216     66218     66217     66219     66221     66220     66222
     66224     66223     66225     66227     66226     66228     66230     66229     66231
     66233     66232     66234     66236     66235     66237     66239     66238     66240
     66242     66241     66243     66245     66244     66246     66248     66247     66249
     66251     66250     66252     66254     66253     66255     66257     66256     66258
     66260     66259     66261     66263     66262     66264     66266     66265     66267
     66269     66268     66270     66272     66271     66273     66275     66274     66276
     66278     66277     66279     66281     66280     66282     66284     66283     66285
     66287     66286     66288     66290     66289     66291     66293     66292     66294
     66296     66295     66297     66299     66298     66300     66302     66301     66303
     66305     66304     66306     66308     66307     66309     66311     66310     66312
     66314     66313     66315     66317     66316     66318     66320     66319     66321
     66323     66322     66324     66326     66325     66327     66329     66328     66330
     66332     66331     66333     66335     66334     66336     66338     66337     66339
     66341     66340     66342     66344     66343     66345     66347     66346     66348
     66350     66349     66351     66353     66352     66354     66356     66355     66357
     66359     66358     66360     66362     66361     66363     66365     66364     66366
     66368     66367     66369     66371     66370     66372     66374     66373     66375
     66377     66376     66378     66380     66379     66381     66383     66382     66384
     66386     66385     66387     66389     66388     66390     66392     66391     66393
     66395     66394     66396     66398     66397     66399     66401     66400     66402
     66404     66403     66405     66407     66406     66408     66410     66409     66411
     66413     66412     66414     66416     66415     66417     66419     66418     66420
     66422     66421     66423     66425     66424     66426     66428     66427     66429
     66431     66430     66432     66434     66433     66435     66437     66436     66438
     66440     66439     66441     66443     66442     66444     66446     66445     66447
     66449     66448     66450     66452     66451     66453     66455     66454     66456
     66458     66457     66459     66461     66460     66462     66464     66463     66465
     66467     66466     66468     66470     66469     66471     66473     66472     66474
     66476     66475     66477     66479     66478     66480     66482     66481     66483
     66485     66484     66486     66488     66487     66489     66491     66490     66492
     66494     66493     66495     66497     66496     66498     66500     66499     66501
     66503     66502     66504     66506     66505     66507     66509     66508     66510
     66512     66511     66513     66515     66514     66516     66518     66517     66519
     66521     66520     66522     66524     66523     66525     66527     66526     66528
     66530     66529     66531     66533     66532     66534     66536     66535     66537
     66539     66538     66540     66542     66541     66543     66545     66544     66546
     66548     66547     66549     66551     66550     66552     66554     66553     66555
     66557     66556     66558     66560     66559     66561     66563     66562     66564
     66566     66565     66567     66569     66568     66570     66572     66571     66573
     66575     66574     66576     66578     66577     66579     66581     66580     66582
     66584     66583     66585     66587     66586     66588     66590     66589     66591
     66593     66592     66594     66596     66595     66597     66599     66598     66600
     66602     66601     66603     66605     66604     66606     66608     66607     66609
     66611     66610     66612     66614     66613     66615     66617     66616     66618
     66620     66619     66621     66623     66622     66624     66626     66625     66627
     66629     66628     66630     66632     66631     66633     66635     66634     66636
     66638     66637     66639     66641     66640     66642     66644     66643     66645
     66647     66646     66648     66650     66649     66651     66653     66652     66654
     66656     66655     66657     66659     66658     66660     66662     66661     66663
     66665     66664     66666     66668     66667     66669     66671     66670     66672
     66674     66673     66675     66677     66676     66678     66680     66679     66681
     66683     66682     66684     66686     66685     66687     66689     66688     66690
     66692     66691     66693     66695     66694     66696     66698     66697     66699
     66701     66700     66702     66704     66703     66705     66707     66706     66708
     66710     66709     66711     66713     66712     66714     66716     66715     66717
     66719     66718     66720     66722     66721     66723     66725     66724     66726
     66728     66727     66729     66731     66730     66732     66734     66733     66735
     66737     66736     66738     66740     66739     66741     66743     66742     66744
     66746     66745     66747     66749     66748     66750     66752     66751     66753
     66755     66754     66756     66758     66757     66759     66761     66760     66762
     66764     66763     66765     66767     66766     66768     66770     66769     66771
     66773     66772     66774     66776     66775     66777     66779     66778     66780
     66782     66781     66783     66785     66784     66786     66788     66787     66789
     66791     66790     66792     66794     66793     66795     66797     66796     66798
     66800     66799     66801     66803     66802     66804     66806     66805     66807
     66809     66808     66810     66812     66811     66813     66815     66814     66816
     66818     66817     66819     66821     66820     66822     66824     66823     66825
     66827     66826     66828     66830     66829     66831     66833     66832     66834
     66836     66835     66837     66839     66838     66840     66842     66841     66843
     66845     66844     66846     66848     66847     66849     66851     66850     66852
     66854     66853     66855     66857     66856     66858     66860     66859     66861
     66863     66862     66864     66866     66865     66867     66869     66868     66870
     66872     66871     66873     66875     66874     66876     66878     66877     66879
     66881     66880     66882     66884     66883     66885     66887     66886     66888
     66890     66889     66891     66893     66892     66894     66896     66895     66897
     66899     66898     66900     66902     66901     66903     66905     66904     66906
     66908     66907     66909     66911     66910     66912     66914     66913     66915
     66917     66916     66918     66920     66919     66921     66923     66922     66924
     66926     66925     66927     66929     66928     66930     66932     66931     66933
     66935     66934     66936     66938     66937     66939     66941     66940     66942
     66944     66943     66945     66947     66946     66948     66950     66949     66951
     66953     66952     66954     66956     66955     66957     66959     66958     66960
     66962     66961     66963     66965     66964     66966     66968     66967     66969
     66971     66970     66972     66974     66973     66975     66977     66976     66978
     66980     66979     66981     66983     66982     66984     66986     66985     66987
     66989     66988     66990     66992     66991     66993     66995     66994     66996
     66998     66997     66999     67001     67000     67002     67004     67003     67005
     67007     67006     67008     67010     67009     67011     67013     67012     67014
     67016     67015     67017     67019     67018     67020     67022     67021     67023
     67025     67024     67026     67028     67027     67029     67031     67030     67032
     67034     67033     67035     67037     67036     67038     67040     67039     67041
     67043     67042     67044     67046     67045     67047     67049     67048     67050
     67052     67051     67053     67055     67054     67056     67058     67057     67059
     67061     67060     67062     67064     67063     67065     67067     67066     67068
     67070     67069     67071     67073     67072     67074     67076     67075     67077
     67079     67078     67080     67082     67081     67083     67085     67084     67086
     67088     67087     67089     67091     67090     67092     67094     67093     67095
     67097     67096     67098     67100     67099     67101     67103     67102     67104
     67106     67105     67107     67109     67108     67110     67112     67111     67113
     67115     67114     67116     67118     67117     67119     67121     67120     67122
     67124     67123     67125     67127     67126     67128     67130     67129     67131
     67133     67132     67134     67136     67135     67137     67139     67138     67140
     67142     67141     67143     67145     67144     67146     67148     67147     67149
     67151     67150     67152     67154     67153     67155     67157     67156     67158
     67160     67159     67161     67163     67162     67164     67166     67165     67167
     67169     67168     67170     67172     67171     67173     67175     67174     67176
     67178     67177     67179     67181     67180     67182     67184     67183     67185
     67187     67186     67188     67190     67189     67191     67193     67192     67194
     67196     67195     67197     67199     67198     67200     67202     67201     67203
     67205     67204     67206     67208     67207     67209     67211     67210     67212
     67214     67213     67215     67217     67216     67218     67220     67219     67221
     67223     67222     67224     67226     67225     67227     67229     67228     67230
     67232     67231     67233     67235     67234     67236     67238     67237     67239
     67241     67240     67242     67244     67243     67245     67247     67246     67248
     67250     67249     67251     67253     67252     67254     67256     67255     67257
     67259     67258     67260     67262     67261     67263     67265     67264     67266
     67268     67267     67269     67271     67270     67272     67274     67273     67275
     67277     67276     67278     67280     67279     67281     67283     67282     67284
     67286     67285     67287     67289     67288     67290     67292     67291     67293
     67295     67294     67296     67298     67297     67299     67301     67300     67302
     67304     67303     67305     67307     67306     67308     67310     67309     67311
     67313     67312     67314     67316     67315     67317     67319     67318     67320
     67322     67321     67323     67325     67324     67326     67328     67327     67329
     67331     67330     67332     67334     67333     67335     67337     67336     67338
     67340     67339     67341     67343     67342     67344     67346     67345     67347
     67349     67348     67350     67352     67351     67353     67355     67354     67356
     67358     67357     67359     67361     67360     67362     67364     67363     67365
     67367     67366     67368     67370     67369     67371     67373     67372     67374
     67376     67375     67377     67379     67378     67380     67382     67381     67383
     67385     67384     67386     67388     67387     67389     67391     67390     67392
     67394     67393     67395     67397     67396     67398     67400     67399     67401
     67403     67402     67404     67406     67405     67407     67409     67408     67410
     67412     67411     67413     67415     67414     67416     67418     67417     67419
     67421     67420     67422     67424     67423     67425     67427     67426     67428
     67430     67429     67431     67433     67432     67434     67436     67435     67437
     67439     67438     67440     67442     67441     67443     67445     67444     67446
     67448     67447     67449     67451     67450     67452     67454     67453     67455
     67457     67456     67458     67460     67459     67461     67463     67462     67464
     67466     67465     67467     67469     67468     67470     67472     67471     67473
     67475     67474     67476     67478     67477     67479     67481     67480     67482
     67484     67483     67485     67487     67486     67488     67490     67489     67491
     67493     67492     67494     67496     67495     67497     67499     67498     67500
     67502     67501     67503     67505     67504     67506     67508     67507     67509
     67511     67510     67512     67514     67513     67515     67517     67516     67518
     67520     67519     67521     67523     67522     67524     67526     67525     67527
     67529     67528     67530     67532     67531     67533     67535     67534     67536
     67538     67537     67539     67541     67540     67542     67544     67543     67545
     67547     67546     67548     67550     67549     67551     67553     67552     67554
     67556     67555     67557     67559     67558     67560     67562     67561     67563
     67565     67564     67566     67568     67567     67569     67571     67570     67572
     67574     67573     67575     67577     67576     67578     67580     67579     67581
     67583     67582     67584     67586     67585     67587     67589     67588     67590
     67592     67591     67593     67595     67594     67596     67598     67597     67599
     67601     67600     67602     67604     67603     67605     67607     67606     67608
     67610     67609     67611     67613     67612     67614     67616     67615     67617
     67619     67618     67620     67622     67621     67623     67625     67624     67626
     67628     67627     67629     67631     67630     67632     67634     67633     67635
     67637     67636     67638     67640     67639     67641     67643     67642     67644
     67646     67645     67647     67649     67648     67650     67652     67651     67653
     67655     67654     67656     67658     67657     67659     67661     67660     67662
     67664     67663     67665     67667     67666     67668     67670     67669     67671
     67673     67672     67674     67676     67675     67677     67679     67678     67680
     67682     67681     67683     67685     67684     67686     67688     67687     67689
     67691     67690     67692     67694     67693     67695     67697     67696     67698
     67700     67699     67701     67703     67702     67704     67706     67705     67707
     67709     67708     67710     67712     67711     67713     67715     67714     67716
     67718     67717     67719     67721     67720     67722     67724     67723     67725
     67727     67726     67728     67730     67729     67731     67733     67732     67734
     67736     67735     67737     67739     67738     67740     67742     67741     67743
     67745     67744     67746     67748     67747     67749     67751     67750     67752
     67754     67753     67755     67757     67756     67758     67760     67759     67761
     67763     67762     67764     67766     67765     67767     67769     67768     67770
     67772     67771     67773     67775     67774     67776     67778     67777     67779
     67781     67780     67782     67784     67783     67785     67787     67786     67788
     67790     67789     67791     67793     67792     67794     67796     67795     67797
     67799     67798     67800     67802     67801     67803     67805     67804     67806
     67808     67807     67809     67811     67810     67812     67814     67813     67815
     67817     67816     67818     67820     67819     67821     67823     67822     67824
     67826     67825     67827     67829     67828     67830     67832     67831     67833
     67835     67834     67836     67838     67837     67839     67841     67840     67842
     67844     67843     67845     67847     67846     67848     67850     67849     67851
     67853     67852     67854     67856     67855     67857     67859     67858     67860
     67862     67861     67863     67865     67864     67866     67868     67867     67869
     67871     67870     67872     67874     67873     67875     67877     67876     67878
     67880     67879     67881     67883     67882     67884     67886     67885     67887
     67889     67888     67890     67892     67891     67893     67895     67894     67896
     67898     67897     67899     67901     67900     67902     67904     67903     67905
     67907     67906     67908     67910     67909     67911     67913     67912     67914
     67916     67915     67917     67919     67918     67920     67922     67921     67923
     67925     67924     67926     67928     67927     67929     67931     67930     67932
     67934     67933     67935     67937     67936     67938     67940     67939     67941
     67943     67942     67944     67946     67945     67947     67949     67948     67950
     67952     67951     67953     67955     67954     67956     67958     67957     67959
     67961     67960     67962     67964     67963     67965     67967     67966     67968
     67970     67969     67971     67973     67972     67974     67976     67975     67977
     67979     67978     67980     67982     67981     67983     67985     67984     67986
     67988     67987     67989     67991     67990     67992     67994     67993     67995
     67997     67996     67998     68000     67999     68001     68003     68002     68004
     68006     68005     68007     68009     68008     68010     68012     68011     68013
     68015     68014     68016     68018     68017     68019     68021     68020     68022
     68024     68023     68025     68027     68026     68028     68030     68029     68031
     68033     68032     68034     68036     68035     68037     68039     68038     68040
     68042     68041     68043     68045     68044     68046     68048     68047     68049
     68051     68050     68052     68054     68053     68055     68057     68056     68058
     68060     68059     68061     68063     68062     68064     68066     68065     68067
     68069     68068     68070     68072     68071     68073     68075     68074     68076
     68078     68077     68079     68081     68080     68082     68084     68083     68085
     68087     68086     68088     68090     68089     68091     68093     68092     68094
     68096     68095     68097     68099     68098     68100     68102     68101     68103
     68105     68104     68106     68108     68107     68109     68111     68110     68112
     68114     68113     68115     68117     68116     68118     68120     68119     68121
     68123     68122     68124     68126     68125     68127     68129     68128     68130
     68132     68131     68133     68135     68134     68136     68138     68137     68139
     68141     68140     68142     68144     68143     68145     68147     68146     68148
     68150     68149     68151     68153     68152     68154     68156     68155     68157
     68159     68158     68160     68162     68161     68163     68165     68164     68166
     68168     68167     68169     68171     68170     68172     68174     68173     68175
     68177     68176     68178     68180     68179     68181     68183     68182     68184
     68186     68185     68187     68189     68188     68190     68192     68191     68193
     68195     68194     68196     68198     68197     68199     68201     68200     68202
     68204     68203     68205     68207     68206     68208     68210     68209     68211
     68213     68212     68214     68216     68215     68217     68219     68218     68220
     68222     68221     68223     68225     68224     68226     68228     68227     68229
     68231     68230     68232     68234     68233     68235     68237     68236     68238
     68240     68239     68241     68243     68242     68244     68246     68245     68247
     68249     68248     68250     68252     68251     68253     68255     68254     68256
     68258     68257     68259     68261     68260     68262     68264     68263     68265
     68267     68266     68268     68270     68269     68271     68273     68272     68274
     68276     68275     68277     68279     68278     68280     68282     68281     68283
     68285     68284     68286     68288     68287     68289     68291     68290     68292
     68294     68293     68295     68297     68296     68298     68300     68299     68301
     68303     68302     68304     68306     68305     68307     68309     68308     68310
     68312     68311     68313     68315     68314     68316     68318     68317     68319
     68321     68320     68322     68324     68323     68325     68327     68326     68328
     68330     68329     68331     68333     68332     68334     68336     68335     68337
     68339     68338     68340     68342     68341     68343     68345     68344     68346
     68348     68347     68349     68351     68350     68352     68354     68353     68355
     68357     68356     68358     68360     68359     68361     68363     68362     68364
     68366     68365     68367     68369     68368     68370     68372     68371     68373
     68375     68374     68376     68378     68377     68379     68381     68380     68382
     68384     68383     68385     68387     68386     68388     68390     68389     68391
     68393     68392     68394     68396     68395     68397     68399     68398     68400
     68402     68401     68403     68405     68404     68406     68408     68407     68409
     68411     68410     68412     68414     68413     68415     68417     68416     68418
     68420     68419     68421     68423     68422     68424     68426     68425     68427
     68429     68428     68430     68432     68431     68433     68435     68434     68436
     68438     68437     68439     68441     68440     68442     68444     68443     68445
     68447     68446     68448     68450     68449     68451     68453     68452     68454
     68456     68455     68457     68459     68458     68460     68462     68461     68463
     68465     68464     68466     68468     68467     68469     68471     68470     68472
     68474     68473     68475     68477     68476     68478     68480     68479     68481
     68483     68482     68484     68486     68485     68487     68489     68488     68490
     68492     68491     68493     68495     68494     68496     68498     68497     68499
     68501     68500     68502     68504     68503     68505     68507     68506     68508
     68510     68509     68511     68513     68512     68514     68516     68515     68517
     68519     68518     68520     68522     68521     68523     68525     68524     68526
     68528     68527     68529     68531     68530     68532     68534     68533     68535
     68537     68536     68538     68540     68539     68541     68543     68542     68544
     68546     68545     68547     68549     68548     68550     68552     68551     68553
     68555     68554     68556     68558     68557     68559     68561     68560     68562
     68564     68563     68565     68567     68566     68568     68570     68569     68571
     68573     68572     68574     68576     68575     68577     68579     68578     68580
     68582     68581     68583     68585     68584     68586     68588     68587     68589
     68591     68590     68592     68594     68593     68595     68597     68596     68598
     68600     68599     68601     68603     68602     68604     68606     68605     68607
     68609     68608     68610     68612     68611     68613     68615     68614     68616
     68618     68617     68619     68621     68620     68622     68624     68623     68625
     68627     68626     68628     68630     68629     68631     68633     68632     68634
     68636     68635     68637     68639     68638     68640     68642     68641     68643
     68645     68644     68646     68648     68647     68649     68651     68650     68652
     68654     68653     68655     68657     68656     68658     68660     68659     68661
     68663     68662     68664     68666     68665     68667     68669     68668     68670
     68672     68671     68673     68675     68674     68676     68678     68677     68679
     68681     68680     68682     68684     68683     68685     68687     68686     68688
     68690     68689     68691     68693     68692     68694     68696     68695     68697
     68699     68698     68700     68702     68701     68703     68705     68704     68706
     68708     68707     68709     68711     68710     68712     68714     68713     68715
     68717     68716     68718     68720     68719     68721     68723     68722     68724
     68726     68725     68727     68729     68728     68730     68732     68731     68733
     68735     68734     68736     68738     68737     68739     68741     68740     68742
     68744     68743     68745     68747     68746     68748     68750     68749     68751
     68753     68752     68754     68756     68755     68757     68759     68758     68760
     68762     68761     68763     68765     68764     68766     68768     68767     68769
     68771     68770     68772     68774     68773     68775     68777     68776     68778
     68780     68779     68781     68783     68782     68784     68786     68785     68787
     68789     68788     68790     68792     68791     68793     68795     68794     68796
     68798     68797     68799     68801     68800     68802     68804     68803     68805
     68807     68806     68808     68810     68809     68811     68813     68812     68814
     68816     68815     68817     68819     68818     68820     68822     68821     68823
     68825     68824     68826     68828     68827     68829     68831     68830     68832
     68834     68833     68835     68837     68836     68838     68840     68839     68841
     68843     68842     68844     68846     68845     68847     68849     68848     68850
     68852     68851     68853     68855     68854     68856     68858     68857     68859
     68861     68860     68862     68864     68863     68865     68867     68866     68868
     68870     68869     68871     68873     68872     68874     68876     68875     68877
     68879     68878     68880     68882     68881     68883     68885     68884     68886
     68888     68887     68889     68891     68890     68892     68894     68893     68895
     68897     68896     68898     68900     68899     68901     68903     68902     68904
     68906     68905     68907     68909     68908     68910     68912     68911     68913
     68915     68914     68916     68918     68917     68919     68921     68920     68922
     68924     68923     68925     68927     68926     68928     68930     68929     68931
     68933     68932     68934     68936     68935     68937     68939     68938     68940
     68942     68941     68943     68945     68944     68946     68948     68947     68949
     68951     68950     68952     68954     68953     68955     68957     68956     68958
     68960     68959     68961     68963     68962     68964     68966     68965     68967
     68969     68968     68970     68972     68971     68973     68975     68974     68976
     68978     68977     68979     68981     68980     68982     68984     68983     68985
     68987     68986     68988     68990     68989     68991     68993     68992     68994
     68996     68995     68997     68999     68998     69000     69002     69001     69003
     69005     69004     69006     69008     69007     69009     69011     69010     69012
     69014     69013     69015     69017     69016     69018     69020     69019     69021
     69023     69022     69024     69026     69025     69027     69029     69028     69030
     69032     69031     69033     69035     69034     69036     69038     69037     69039
     69041     69040     69042     69044     69043     69045     69047     69046     69048
     69050     69049     69051     69053     69052     69054     69056     69055     69057
     69059     69058     69060     69062     69061     69063     69065     69064     69066
     69068     69067     69069     69071     69070     69072     69074     69073     69075
     69077     69076     69078     69080     69079     69081     69083     69082     69084
     69086     69085     69087     69089     69088     69090     69092     69091     69093
     69095     69094     69096     69098     69097     69099     69101     69100     69102
     69104     69103     69105     69107     69106     69108     69110     69109     69111
     69113     69112     69114     69116     69115     69117     69119     69118     69120
     69122     69121     69123     69125     69124     69126     69128     69127     69129
     69131     69130     69132     69134     69133     69135     69137     69136     69138
     69140     69139     69141     69143     69142     69144     69146     69145     69147
     69149     69148     69150     69152     69151     69153     69155     69154     69156
     69158     69157     69159     69161     69160     69162     69164     69163     69165
     69167     69166     69168     69170     69169     69171     69173     69172     69174
     69176     69175     69177     69179     69178     69180     69182     69181     69183
     69185     69184     69186     69188     69187     69189     69191     69190     69192
     69194     69193     69195     69197     69196     69198     69200     69199     69201
     69203     69202     69204     69206     69205     69207     69209     69208     69210
     69212     69211     69213     69215     69214     69216     69218     69217     69219
     69221     69220     69222     69224     69223     69225     69227     69226     69228
     69230     69229     69231     69233     69232     69234     69236     69235     69237
     69239     69238     69240     69242     69241     69243     69245     69244     69246
     69248     69247     69249     69251     69250     69252     69254     69253     69255
     69257     69256     69258     69260     69259     69261     69263     69262     69264
     69266     69265     69267     69269     69268     69270     69272     69271     69273
     69275     69274     69276     69278     69277     69279     69281     69280     69282
     69284     69283     69285     69287     69286     69288     69290     69289     69291
     69293     69292     69294     69296     69295     69297     69299     69298     69300
     69302     69301     69303     69305     69304     69306     69308     69307     69309
     69311     69310     69312     69314     69313     69315     69317     69316     69318
     69320     69319     69321     69323     69322     69324     69326     69325     69327
     69329     69328     69330     69332     69331     69333     69335     69334     69336
     69338     69337     69339     69341     69340     69342     69344     69343     69345
     69347     69346     69348     69350     69349     69351     69353     69352     69354
     69356     69355     69357     69359     69358     69360     69362     69361     69363
     69365     69364     69366     69368     69367     69369     69371     69370     69372
     69374     69373     69375     69377     69376     69378     69380     69379     69381
     69383     69382     69384     69386     69385     69387     69389     69388     69390
     69392     69391     69393     69395     69394     69396     69398     69397     69399
     69401     69400     69402     69404     69403     69405     69407     69406     69408
     69410     69409     69411     69413     69412     69414     69416     69415     69417
     69419     69418     69420     69422     69421     69423     69425     69424     69426
     69428     69427     69429     69431     69430     69432     69434     69433     69435
     69437     69436     69438     69440     69439     69441     69443     69442     69444
     69446     69445     69447     69449     69448     69450     69452     69451     69453
     69455     69454     69456     69458     69457     69459     69461     69460     69462
     69464     69463     69465     69467     69466     69468     69470     69469     69471
     69473     69472     69474     69476     69475     69477     69479     69478     69480
     69482     69481     69483     69485     69484     69486     69488     69487     69489
     69491     69490     69492     69494     69493     69495     69497     69496     69498
     69500     69499     69501     69503     69502     69504     69506     69505     69507
     69509     69508     69510     69512     69511     69513     69515     69514     69516
     69518     69517     69519     69521     69520     69522     69524     69523     69525
     69527     69526     69528     69530     69529     69531     69533     69532     69534
     69536     69535     69537     69539     69538     69540     69542     69541     69543
     69545     69544     69546     69548     69547     69549     69551     69550     69552
     69554     69553     69555     69557     69556     69558     69560     69559     69561
     69563     69562     69564     69566     69565     69567     69569     69568     69570
     69572     69571     69573     69575     69574     69576     69578     69577     69579
     69581     69580     69582     69584     69583     69585     69587     69586     69588
     69590     69589     69591     69593     69592     69594     69596     69595     69597
     69599     69598     69600     69602     69601     69603     69605     69604     69606
     69608     69607     69609     69611     69610     69612     69614     69613     69615
     69617     69616     69618     69620     69619     69621     69623     69622     69624
     69626     69625     69627     69629     69628     69630     69632     69631     69633
     69635     69634     69636     69638     69637     69639     69641     69640     69642
     69644     69643     69645     69647     69646     69648     69650     69649     69651
     69653     69652     69654     69656     69655     69657     69659     69658     69660
     69662     69661     69663     69665     69664     69666     69668     69667     69669
     69671     69670     69672     69674     69673     69675     69677     69676     69678
     69680     69679     69681     69683     69682     69684     69686     69685     69687
     69689     69688     69690     69692     69691     69693     69695     69694     69696
     69698     69697     69699     69701     69700     69702     69704     69703     69705
     69707     69706     69708     69710     69709     69711     69713     69712     69714
     69716     69715     69717     69719     69718     69720     69722     69721     69723
     69725     69724     69726     69728     69727     69729     69731     69730     69732
     69734     69733     69735     69737     69736     69738     69740     69739     69741
     69743     69742     69744     69746     69745     69747     69749     69748     69750
     69752     69751     69753     69755     69754     69756     69758     69757     69759
     69761     69760     69762     69764     69763     69765     69767     69766     69768
     69770     69769     69771     69773     69772     69774     69776     69775     69777
     69779     69778     69780     69782     69781     69783     69785     69784     69786
     69788     69787     69789     69791     69790     69792     69794     69793     69795
     69797     69796     69798     69800     69799     69801     69803     69802     69804
     69806     69805     69807     69809     69808     69810     69812     69811     69813
     69815     69814     69816     69818     69817     69819     69821     69820     69822
     69824     69823     69825     69827     69826     69828     69830     69829     69831
     69833     69832     69834     69836     69835     69837     69839     69838     69840
     69842     69841     69843     69845     69844     69846     69848     69847     69849
     69851     69850     69852     69854     69853     69855     69857     69856     69858
     69860     69859     69861     69863     69862     69864     69866     69865     69867
     69869     69868     69870     69872     69871     69873     69875     69874     69876
     69878     69877     69879     69881     69880     69882     69884     69883     69885
     69887     69886     69888     69890     69889     69891     69893     69892     69894
     69896     69895     69897     69899     69898     69900     69902     69901     69903
     69905     69904     69906     69908     69907     69909     69911     69910     69912
     69914     69913     69915     69917     69916     69918     69920     69919     69921
     69923     69922     69924     69926     69925     69927     69929     69928     69930
     69932     69931     69933     69935     69934     69936     69938     69937     69939
     69941     69940     69942     69944     69943     69945     69947     69946     69948
     69950     69949     69951     69953     69952     69954     69956     69955     69957
     69959     69958     69960     69962     69961     69963     69965     69964     69966
     69968     69967     69969     69971     69970     69972     69974     69973     69975
     69977     69976     69978     69980     69979     69981     69983     69982     69984
     69986     69985     69987     69989     69988     69990     69992     69991     69993
     69995     69994     69996     69998     69997     69999     70001     70000     70002
     70004     70003     70005     70007     70006     70008     70010     70009     70011
     70013     70012     70014     70016     70015     70017     70019     70018     70020
     70022     70021     70023     70025     70024     70026     70028     70027     70029
     70031     70030     70032     70034     70033     70035     70037     70036     70038
     70040     70039     70041     70043     70042     70044     70046     70045     70047
     70049     70048     70050     70052     70051     70053     70055     70054     70056
     70058     70057     70059     70061     70060     70062     70064     70063     70065
     70067     70066     70068     70070     70069     70071     70073     70072     70074
     70076     70075     70077     70079     70078     70080     70082     70081     70083
     70085     70084     70086     70088     70087     70089     70091     70090     70092
     70094     70093     70095     70097     70096     70098     70100     70099     70101
     70103     70102     70104     70106     70105     70107     70109     70108     70110
     70112     70111     70113     70115     70114     70116     70118     70117     70119
     70121     70120     70122     70124     70123     70125     70127     70126     70128
     70130     70129     70131     70133     70132     70134     70136     70135     70137
     70139     70138     70140     70142     70141     70143     70145     70144     70146
     70148     70147     70149     70151     70150     70152     70154     70153     70155
     70157     70156     70158     70160     70159     70161     70163     70162     70164
     70166     70165     70167     70169     70168     70170     70172     70171     70173
     70175     70174     70176     70178     70177     70179     70181     70180     70182
     70184     70183     70185     70187     70186     70188     70190     70189     70191
     70193     70192     70194     70196     70195     70197     70199     70198     70200
     70202     70201     70203     70205     70204     70206     70208     70207     70209
     70211     70210     70212     70214     70213     70215     70217     70216     70218
     70220     70219     70221     70223     70222     70224     70226     70225     70227
     70229     70228     70230     70232     70231     70233     70235     70234     70236
     70238     70237     70239     70241     70240     70242     70244     70243     70245
     70247     70246     70248     70250     70249     70251     70253     70252     70254
     70256     70255     70257     70259     70258     70260     70262     70261     70263
     70265     70264     70266     70268     70267     70269     70271     70270     70272
     70274     70273     70275     70277     70276     70278     70280     70279     70281
     70283     70282     70284     70286     70285     70287     70289     70288     70290
     70292     70291     70293     70295     70294     70296     70298     70297     70299
     70301     70300     70302     70304     70303     70305     70307     70306     70308
     70310     70309     70311     70313     70312     70314     70316     70315     70317
     70319     70318     70320     70322     70321     70323     70325     70324     70326
     70328     70327     70329     70331     70330     70332     70334     70333     70335
     70337     70336     70338     70340     70339     70341     70343     70342     70344
     70346     70345     70347     70349     70348     70350     70352     70351     70353
     70355     70354     70356     70358     70357     70359     70361     70360     70362
     70364     70363     70365     70367     70366     70368     70370     70369     70371
     70373     70372     70374     70376     70375     70377     70379     70378     70380
     70382     70381     70383     70385     70384     70386     70388     70387     70389
     70391     70390     70392     70394     70393     70395     70397     70396     70398
     70400     70399     70401     70403     70402     70404     70406     70405     70407
     70409     70408     70410     70412     70411     70413     70415     70414     70416
     70418     70417     70419     70421     70420     70422     70424     70423     70425
     70427     70426     70428     70430     70429     70431     70433     70432     70434
     70436     70435     70437     70439     70438     70440     70442     70441     70443
     70445     70444     70446     70448     70447     70449     70451     70450     70452
     70454     70453     70455     70457     70456     70458     70460     70459     70461
     70463     70462     70464     70466     70465     70467     70469     70468     70470
     70472     70471     70473     70475     70474     70476     70478     70477     70479
     70481     70480     70482     70484     70483     70485     70487     70486     70488
     70490     70489     70491     70493     70492     70494     70496     70495     70497
     70499     70498     70500     70502     70501     70503     70505     70504     70506
     70508     70507     70509     70511     70510     70512     70514     70513     70515
     70517     70516     70518     70520     70519     70521     70523     70522     70524
     70526     70525     70527     70529     70528     70530     70532     70531     70533
     70535     70534     70536     70538     70537     70539     70541     70540     70542
     70544     70543     70545     70547     70546     70548     70550     70549     70551
     70553     70552     70554     70556     70555     70557     70559     70558     70560
     70562     70561     70563     70565     70564     70566     70568     70567     70569
     70571     70570     70572     70574     70573     70575     70577     70576     70578
     70580     70579     70581     70583     70582     70584     70586     70585     70587
     70589     70588     70590     70592     70591     70593     70595     70594     70596
     70598     70597     70599     70601     70600     70602     70604     70603     70605
     70607     70606     70608     70610     70609     70611     70613     70612     70614
     70616     70615     70617     70619     70618     70620     70622     70621     70623
     70625     70624     70626     70628     70627     70629     70631     70630     70632
     70634     70633     70635     70637     70636     70638     70640     70639     70641
     70643     70642     70644     70646     70645     70647     70649     70648     70650
     70652     70651     70653     70655     70654     70656     70658     70657     70659
     70661     70660     70662     70664     70663     70665     70667     70666     70668
     70670     70669     70671     70673     70672     70674     70676     70675     70677
     70679     70678     70680     70682     70681     70683     70685     70684     70686
     70688     70687     70689

    2619 !NPHI: dihedrals
         1         8        10        11         1         8        12        13
         1         8        12        14         1         8        12        15
         1         7         5        15         1         7         5         6
         1         7         5        18         2         1         3         4
         2         1         7         5         2         1         8         9
         2         1         8        10         2         1         8        12
         3         1         7         5         3         1         8         9
         3         1         8        10         3         1         8        12
         4         3         1         7         4         3         1         8
         5        15        12         8         5        15        12        13
         5        15        12        14         5        15        17        22
         5         7         1         8         6         5        15        12
         6         5        15        16         6         5        15        17
         6         5        18        19         6         5        18        20
         6         5        18        21         7         5        15        12
         7         5        15        16         7         5        15        17
         7         5        18        19         7         5        18        20
         7         5        18        21         7         1         8         9
         7         1         8        10         7         1         8        12
         8        12        14        79         8        12        15        16
         8        12        15        17         9         8        10        11
         9         8        12        13         9         8        12        14
         9         8        12        15        10         8        12        13
        10         8        12        14        10         8        12        15
        11        10         8        12        12        15        17        22
        12        15         5        18        12        14        79        80
        12        14        79        83        12        14        79        84
        13        12        14        79        13        12        15        16
        13        12        15        17        14        79        83        81
        14        79        84        85        14        79        84        86
        14        79        84        88        14        12        15        16
        14        12        15        17        15        17        22        23
        15        17        22        26        15        17        22        27
        15        12        14        79        15         5        18        19
        15         5        18        20        15         5        18        21
        16        15        17        22        16        15         5        18
        17        22        26        24        17        22        27        28
        17        22        27        29        17        22        27        30
        17        15         5        18        22        27        29        42
        22        27        30        31        22        27        30        32
        22        27        30        33        22        26        24        33
        22        26        24        25        22        26        24        37
        23        22        26        24        23        22        27        28
        23        22        27        29        23        22        27        30
        24        37        40        41        24        33        30        27
        24        33        30        31        24        33        30        32
        24        33        35        36        24        26        22        27
        25        24        33        30        25        24        33        34
        25        24        33        35        25        24        37        38
        25        24        37        39        25        24        37        40
        26        24        33        30        26        24        33        34
        26        24        33        35        26        24        37        38
        26        24        37        39        26        24        37        40
        26        22        27        28        26        22        27        29
        26        22        27        30        27        30        32        71
        27        30        33        34        27        30        33        35
        27        29        42        43        27        29        42        46
        27        29        42        47        28        27        29        42
        28        27        30        31        28        27        30        32
        28        27        30        33        29        42        46        44
        29        42        47        48        29        42        47        49
        29        42        47        51        29        27        30        31
        29        27        30        32        29        27        30        33
        30        33        35        36        30        33        24        37
        30        32        71        70        30        32        71        72
        30        32        71        73        30        27        29        42
        31        30        32        71        31        30        33        34
        31        30        33        35        32        71        70        68
        32        30        33        34        32        30        33        35
        33        30        32        71        33        24        37        38
        33        24        37        39        33        24        37        40
        34        33        35        36        34        33        24        37
        35        33        24        37        38        37        40        41
        39        37        40        41        42        47        49        50
        42        47        51        52        42        47        51        53
        42        47        51        55        42        46        44        55
        42        46        44        45        42        46        44        59
        43        42        46        44        43        42        47        48
        43        42        47        49        43        42        47        51
        44        55        51        47        44        55        51        52
        44        55        51        53        44        55        57        58
        44        46        42        47        45        44        55        51
        45        44        55        56        45        44        55        57
        45        44        59        60        45        44        59        61
        45        44        59        62        46        44        55        51
        46        44        55        56        46        44        55        57
        46        44        59        60        46        44        59        61
        46        44        59        62        46        42        47        48
        46        42        47        49        46        42        47        51
        47        51        53        54        47        51        55        56
        47        51        55        57        48        47        49        50
        48        47        51        52        48        47        51        53
        48        47        51        55        49        47        51        52
        49        47        51        53        49        47        51        55
        50        49        47        51        51        55        57        58
        51        55        44        59        52        51        53        54
        52        51        55        56        52        51        55        57
        53        51        55        56        53        51        55        57
        54        53        51        55        55        44        59        60
        55        44        59        61        55        44        59        62
        56        55        57        58        56        55        44        59
        57        55        44        59        63        68        70        71
        63        68        74        75        63        68        74        77
        63        68        74        76        64        63        66        67
        64        63        68        69        64        63        68        70
        64        63        68        74        65        63        66        67
        65        63        68        69        65        63        68        70
        65        63        68        74        66        63        68        69
        66        63        68        70        66        63        68        74
        67        66        63        68        68        74        77        78
        68        70        71        72        68        70        71        73
        69        68        70        71        69        68        74        75
        69        68        74        77        69        68        74        76
        70        68        74        75        70        68        74        77
        70        68        74        76        71        70        68        74
        75        74        77        78        76        74        77        78
        79        84        86        87        79        84        88        89
        79        84        88        90        79        84        88        92
        79        83        81        92        79        83        81        82
        79        83        81        95        80        79        83        81
        80        79        84        85        80        79        84        86
        80        79        84        88        81        95        98        99
        81        92        88        84        81        92        88        89
        81        92        88        90        81        92        94       100
        81        83        79        84        82        81        92        88
        82        81        92        93        82        81        92        94
        82        81        95        96        82        81        95        97
        82        81        95        98        83        81        92        88
        83        81        92        93        83        81        92        94
        83        81        95        96        83        81        95        97
        83        81        95        98        83        79        84        85
        83        79        84        86        83        79        84        88
        84        88        90        91        84        88        92        93
        84        88        92        94        85        84        86        87
        85        84        88        89        85        84        88        90
        85        84        88        92        86        84        88        89
        86        84        88        90        86        84        88        92
        87        86        84        88        88        92        94       100
        88        92        81        95        89        88        90        91
        89        88        92        93        89        88        92        94
        90        88        92        93        90        88        92        94
        91        90        88        92        92        94       100       101
        92        94       100       104        92        94       100       105
        92        81        95        96        92        81        95        97
        92        81        95        98        93        92        94       100
        93        92        81        95        94       100       104       102
        94       100       105       106        94       100       105       107
        94       100       105       109        94        92        81        95
        96        95        98        99        97        95        98        99
       100       105       107       108       100       105       109       110
       100       105       109       111       100       105       109       112
       100       104       102       112       100       104       102       103
       100       104       102       115       101       100       104       102
       101       100       105       106       101       100       105       107
       101       100       105       109       102       112       109       105
       102       112       109       110       102       112       109       111
       102       112       114       119       102       104       100       105
       103       102       112       109       103       102       112       113
       103       102       112       114       103       102       115       116
       103       102       115       117       103       102       115       118
       104       102       112       109       104       102       112       113
       104       102       112       114       104       102       115       116
       104       102       115       117       104       102       115       118
       104       100       105       106       104       100       105       107
       104       100       105       109       105       109       111       176
       105       109       112       113       105       109       112       114
       106       105       107       108       106       105       109       110
       106       105       109       111       106       105       109       112
       107       105       109       110       107       105       109       111
       107       105       109       112       108       107       105       109
       109       112       114       119       109       112       102       115
       109       111       176       177       109       111       176       180
       109       111       176       181       110       109       111       176
       110       109       112       113       110       109       112       114
       111       176       180       178       111       176       181       182
       111       176       181       183       111       176       181       185
       111       109       112       113       111       109       112       114
       112       114       119       120       112       114       119       123
       112       114       119       124       112       109       111       176
       112       102       115       116       112       102       115       117
       112       102       115       118       113       112       114       119
       113       112       102       115       114       119       123       121
       114       119       124       125       114       119       124       126
       114       119       124       127       114       112       102       115
       119       124       126       139       119       124       127       128
       119       124       127       129       119       124       127       130
       119       123       121       130       119       123       121       122
       119       123       121       134       120       119       123       121
       120       119       124       125       120       119       124       126
       120       119       124       127       121       134       137       138
       121       130       127       124       121       130       127       128
       121       130       127       129       121       130       132       133
       121       123       119       124       122       121       130       127
       122       121       130       131       122       121       130       132
       122       121       134       135       122       121       134       136
       122       121       134       137       123       121       130       127
       123       121       130       131       123       121       130       132
       123       121       134       135       123       121       134       136
       123       121       134       137       123       119       124       125
       123       119       124       126       123       119       124       127
       124       127       129       168       124       127       130       131
       124       127       130       132       124       126       139       140
       124       126       139       143       124       126       139       144
       125       124       126       139       125       124       127       128
       125       124       127       129       125       124       127       130
       126       139       143       141       126       139       144       145
       126       139       144       146       126       139       144       148
       126       124       127       128       126       124       127       129
       126       124       127       130       127       130       132       133
       127       130       121       134       127       129       168       167
       127       129       168       169       127       129       168       170
       127       124       126       139       128       127       129       168
       128       127       130       131       128       127       130       132
       129       168       167       165       129       127       130       131
       129       127       130       132       130       127       129       168
       130       121       134       135       130       121       134       136
       130       121       134       137       131       130       132       133
       131       130       121       134       132       130       121       134
       135       134       137       138       136       134       137       138
       139       144       146       147       139       144       148       149
       139       144       148       150       139       144       148       152
       139       143       141       152       139       143       141       142
       139       143       141       156       140       139       143       141
       140       139       144       145       140       139       144       146
       140       139       144       148       141       152       148       144
       141       152       148       149       141       152       148       150
       141       152       154       155       141       143       139       144
       142       141       152       148       142       141       152       153
       142       141       152       154       142       141       156       157
       142       141       156       158       142       141       156       159
       143       141       152       148       143       141       152       153
       143       141       152       154       143       141       156       157
       143       141       156       158       143       141       156       159
       143       139       144       145       143       139       144       146
       143       139       144       148       144       148       150       151
       144       148       152       153       144       148       152       154
       145       144       146       147       145       144       148       149
       145       144       148       150       145       144       148       152
       146       144       148       149       146       144       148       150
       146       144       148       152       147       146       144       148
       148       152       154       155       148       152       141       156
       149       148       150       151       149       148       152       153
       149       148       152       154       150       148       152       153
       150       148       152       154       151       150       148       152
       152       141       156       157       152       141       156       158
       152       141       156       159       153       152       154       155
       153       152       141       156       154       152       141       156
       160       165       167       168       160       165       171       172
       160       165       171       174       160       165       171       173
       161       160       163       164       161       160       165       166
       161       160       165       167       161       160       165       171
       162       160       163       164       162       160       165       166
       162       160       165       167       162       160       165       171
       163       160       165       166       163       160       165       167
       163       160       165       171       164       163       160       165
       165       171       174       175       165       167       168       169
       165       167       168       170       166       165       167       168
       166       165       171       172       166       165       171       174
       166       165       171       173       167       165       171       172
       167       165       171       174       167       165       171       173
       168       167       165       171       172       171       174       175
       173       171       174       175       176       181       183       184
       176       181       185       186       176       181       185       187
       176       181       185       189       176       180       178       189
       176       180       178       179       176       180       178       192
       177       176       180       178       177       176       181       182
       177       176       181       183       177       176       181       185
       178       192       195       196       178       189       185       181
       178       189       185       186       178       189       185       187
       178       189       191       197       178       180       176       181
       179       178       189       185       179       178       189       190
       179       178       189       191       179       178       192       193
       179       178       192       194       179       178       192       195
       180       178       189       185       180       178       189       190
       180       178       189       191       180       178       192       193
       180       178       192       194       180       178       192       195
       180       176       181       182       180       176       181       183
       180       176       181       185       181       185       187       188
       181       185       189       190       181       185       189       191
       182       181       183       184       182       181       185       186
       182       181       185       187       182       181       185       189
       183       181       185       186       183       181       185       187
       183       181       185       189       184       183       181       185
       185       189       191       197       185       189       178       192
       186       185       187       188       186       185       189       190
       186       185       189       191       187       185       189       190
       187       185       189       191       188       187       185       189
       189       191       197       198       189       191       197       201
       189       191       197       202       189       178       192       193
       189       178       192       194       189       178       192       195
       190       189       191       197       190       189       178       192
       191       197       201       199       191       197       202       203
       191       197       202       204       191       197       202       206
       191       189       178       192       193       192       195       196
       194       192       195       196       197       202       204       205
       197       202       206       207       197       202       206       208
       197       202       206       209       197       201       199       209
       197       201       199       200       197       201       199       212
       198       197       201       199       198       197       202       203
       198       197       202       204       198       197       202       206
       199       209       206       202       199       209       206       207
       199       209       206       208       199       209       211       216
       199       201       197       202       200       199       209       206
       200       199       209       210       200       199       209       211
       200       199       212       213       200       199       212       214
       200       199       212       215       201       199       209       206
       201       199       209       210       201       199       209       211
       201       199       212       213       201       199       212       214
       201       199       212       215       201       197       202       203
       201       197       202       204       201       197       202       206
       202       206       208       273       202       206       209       210
       202       206       209       211       203       202       204       205
       203       202       206       207       203       202       206       208
       203       202       206       209       204       202       206       207
       204       202       206       208       204       202       206       209
       205       204       202       206       206       209       211       216
       206       209       199       212       206       208       273       274
       206       208       273       277       206       208       273       278
       207       206       208       273       207       206       209       210
       207       206       209       211       208       273       277       275
       208       273       278       279       208       273       278       280
       208       273       278       282       208       206       209       210
       208       206       209       211       209       211       216       217
       209       211       216       220       209       211       216       221
       209       206       208       273       209       199       212       213
       209       199       212       214       209       199       212       215
       210       209       211       216       210       209       199       212
       211       216       220       218       211       216       221       222
       211       216       221       223       211       216       221       224
       211       209       199       212       216       221       223       236
       216       221       224       225       216       221       224       226
       216       221       224       227       216       220       218       227
       216       220       218       219       216       220       218       231
       217       216       220       218       217       216       221       222
       217       216       221       223       217       216       221       224
       218       231       234       235       218       227       224       221
       218       227       224       225       218       227       224       226
       218       227       229       230       218       220       216       221
       219       218       227       224       219       218       227       228
       219       218       227       229       219       218       231       232
       219       218       231       233       219       218       231       234
       220       218       227       224       220       218       227       228
       220       218       227       229       220       218       231       232
       220       218       231       233       220       218       231       234
       220       216       221       222       220       216       221       223
       220       216       221       224       221       224       226       265
       221       224       227       228       221       224       227       229
       221       223       236       237       221       223       236       240
       221       223       236       241       222       221       223       236
       222       221       224       225       222       221       224       226
       222       221       224       227       223       236       240       238
       223       236       241       242       223       236       241       243
       223       236       241       245       223       221       224       225
       223       221       224       226       223       221       224       227
       224       227       229       230       224       227       218       231
       224       226       265       264       224       226       265       266
       224       226       265       267       224       221       223       236
       225       224       226       265       225       224       227       228
       225       224       227       229       226       265       264       262
       226       224       227       228       226       224       227       229
       227       224       226       265       227       218       231       232
       227       218       231       233       227       218       231       234
       228       227       229       230       228       227       218       231
       229       227       218       231       232       231       234       235
       233       231       234       235       236       241       243       244
       236       241       245       246       236       241       245       247
       236       241       245       249       236       240       238       249
       236       240       238       239       236       240       238       253
       237       236       240       238       237       236       241       242
       237       236       241       243       237       236       241       245
       238       249       245       241       238       249       245       246
       238       249       245       247       238       249       251       252
       238       240       236       241       239       238       249       245
       239       238       249       250       239       238       249       251
       239       238       253       254       239       238       253       255
       239       238       253       256       240       238       249       245
       240       238       249       250       240       238       249       251
       240       238       253       254       240       238       253       255
       240       238       253       256       240       236       241       242
       240       236       241       243       240       236       241       245
       241       245       247       248       241       245       249       250
       241       245       249       251       242       241       243       244
       242       241       245       246       242       241       245       247
       242       241       245       249       243       241       245       246
       243       241       245       247       243       241       245       249
       244       243       241       245       245       249       251       252
       245       249       238       253       246       245       247       248
       246       245       249       250       246       245       249       251
       247       245       249       250       247       245       249       251
       248       247       245       249       249       238       253       254
       249       238       253       255       249       238       253       256
       250       249       251       252       250       249       238       253
       251       249       238       253       257       262       264       265
       257       262       268       269       257       262       268       271
       257       262       268       270       258       257       260       261
       258       257       262       263       258       257       262       264
       258       257       262       268       259       257       260       261
       259       257       262       263       259       257       262       264
       259       257       262       268       260       257       262       263
       260       257       262       264       260       257       262       268
       261       260       257       262       262       268       271       272
       262       264       265       266       262       264       265       267
       263       262       264       265       263       262       268       269
       263       262       268       271       263       262       268       270
       264       262       268       269       264       262       268       271
       264       262       268       270       265       264       262       268
       269       268       271       272       270       268       271       272
       273       278       280       281       273       278       282       283
       273       278       282       284       273       278       282       286
       273       277       275       286       273       277       275       276
       273       277       275       289       274       273       277       275
       274       273       278       279       274       273       278       280
       274       273       278       282       275       289       292       293
       275       286       282       278       275       286       282       283
       275       286       282       284       275       286       288       294
       275       277       273       278       276       275       286       282
       276       275       286       287       276       275       286       288
       276       275       289       290       276       275       289       291
       276       275       289       292       277       275       286       282
       277       275       286       287       277       275       286       288
       277       275       289       290       277       275       289       291
       277       275       289       292       277       273       278       279
       277       273       278       280       277       273       278       282
       278       282       284       285       278       282       286       287
       278       282       286       288       279       278       280       281
       279       278       282       283       279       278       282       284
       279       278       282       286       280       278       282       283
       280       278       282       284       280       278       282       286
       281       280       278       282       282       286       288       294
       282       286       275       289       283       282       284       285
       283       282       286       287       283       282       286       288
       284       282       286       287       284       282       286       288
       285       284       282       286       286       288       294       295
       286       288       294       298       286       288       294       299
       286       275       289       290       286       275       289       291
       286       275       289       292       287       286       288       294
       287       286       275       289       288       294       298       296
       288       294       299       300       288       294       299       301
       288       294       299       303       288       286       275       289
       290       289       292       293       291       289       292       293
       294       299       301       302       294       299       303       304
       294       299       303       305       294       299       303       306
       294       298       296       306       294       298       296       297
       294       298       296       309       295       294       298       296
       295       294       299       300       295       294       299       301
       295       294       299       303       296       306       303       299
       296       306       303       304       296       306       303       305
       296       306       308       313       296       298       294       299
       297       296       306       303       297       296       306       307
       297       296       306       308       297       296       309       310
       297       296       309       311       297       296       309       312
       298       296       306       303       298       296       306       307
       298       296       306       308       298       296       309       310
       298       296       309       311       298       296       309       312
       298       294       299       300       298       294       299       301
       298       294       299       303       299       303       305       370
       299       303       306       307       299       303       306       308
       300       299       301       302       300       299       303       304
       300       299       303       305       300       299       303       306
       301       299       303       304       301       299       303       305
       301       299       303       306       302       301       299       303
       303       306       308       313       303       306       296       309
       303       305       370       371       303       305       370       374
       303       305       370       375       304       303       305       370
       304       303       306       307       304       303       306       308
       305       370       374       372       305       370       375       376
       305       370       375       377       305       370       375       379
       305       303       306       307       305       303       306       308
       306       308       313       314       306       308       313       317
       306       308       313       318       306       303       305       370
       306       296       309       310       306       296       309       311
       306       296       309       312       307       306       308       313
       307       306       296       309       308       313       317       315
       308       313       318       319       308       313       318       320
       308       313       318       321       308       306       296       309
       313       318       320       333       313       318       321       322
       313       318       321       323       313       318       321       324
       313       317       315       324       313       317       315       316
       313       317       315       328       314       313       317       315
       314       313       318       319       314       313       318       320
       314       313       318       321       315       328       331       332
       315       324       321       318       315       324       321       322
       315       324       321       323       315       324       326       327
       315       317       313       318       316       315       324       321
       316       315       324       325       316       315       324       326
       316       315       328       329       316       315       328       330
       316       315       328       331       317       315       324       321
       317       315       324       325       317       315       324       326
       317       315       328       329       317       315       328       330
       317       315       328       331       317       313       318       319
       317       313       318       320       317       313       318       321
       318       321       323       362       318       321       324       325
       318       321       324       326       318       320       333       334
       318       320       333       337       318       320       333       338
       319       318       320       333       319       318       321       322
       319       318       321       323       319       318       321       324
       320       333       337       335       320       333       338       339
       320       333       338       340       320       333       338       342
       320       318       321       322       320       318       321       323
       320       318       321       324       321       324       326       327
       321       324       315       328       321       323       362       361
       321       323       362       363       321       323       362       364
       321       318       320       333       322       321       323       362
       322       321       324       325       322       321       324       326
       323       362       361       359       323       321       324       325
       323       321       324       326       324       321       323       362
       324       315       328       329       324       315       328       330
       324       315       328       331       325       324       326       327
       325       324       315       328       326       324       315       328
       329       328       331       332       330       328       331       332
       333       338       340       341       333       338       342       343
       333       338       342       344       333       338       342       346
       333       337       335       346       333       337       335       336
       333       337       335       350       334       333       337       335
       334       333       338       339       334       333       338       340
       334       333       338       342       335       346       342       338
       335       346       342       343       335       346       342       344
       335       346       348       349       335       337       333       338
       336       335       346       342       336       335       346       347
       336       335       346       348       336       335       350       351
       336       335       350       352       336       335       350       353
       337       335       346       342       337       335       346       347
       337       335       346       348       337       335       350       351
       337       335       350       352       337       335       350       353
       337       333       338       339       337       333       338       340
       337       333       338       342       338       342       344       345
       338       342       346       347       338       342       346       348
       339       338       340       341       339       338       342       343
       339       338       342       344       339       338       342       346
       340       338       342       343       340       338       342       344
       340       338       342       346       341       340       338       342
       342       346       348       349       342       346       335       350
       343       342       344       345       343       342       346       347
       343       342       346       348       344       342       346       347
       344       342       346       348       345       344       342       346
       346       335       350       351       346       335       350       352
       346       335       350       353       347       346       348       349
       347       346       335       350       348       346       335       350
       354       359       361       362       354       359       365       366
       354       359       365       368       354       359       365       367
       355       354       357       358       355       354       359       360
       355       354       359       361       355       354       359       365
       356       354       357       358       356       354       359       360
       356       354       359       361       356       354       359       365
       357       354       359       360       357       354       359       361
       357       354       359       365       358       357       354       359
       359       365       368       369       359       361       362       363
       359       361       362       364       360       359       361       362
       360       359       365       366       360       359       365       368
       360       359       365       367       361       359       365       366
       361       359       365       368       361       359       365       367
       362       361       359       365       366       365       368       369
       367       365       368       369       370       375       377       378
       370       375       379       380       370       375       379       381
       370       375       379       383       370       374       372       383
       370       374       372       373       370       374       372       386
       371       370       374       372       371       370       375       376
       371       370       375       377       371       370       375       379
       372       386       389       390       372       383       379       375
       372       383       379       380       372       383       379       381
       372       383       385       391       372       374       370       375
       373       372       383       379       373       372       383       384
       373       372       383       385       373       372       386       387
       373       372       386       388       373       372       386       389
       374       372       383       379       374       372       383       384
       374       372       383       385       374       372       386       387
       374       372       386       388       374       372       386       389
       374       370       375       376       374       370       375       377
       374       370       375       379       375       379       381       382
       375       379       383       384       375       379       383       385
       376       375       377       378       376       375       379       380
       376       375       379       381       376       375       379       383
       377       375       379       380       377       375       379       381
       377       375       379       383       378       377       375       379
       379       383       385       391       379       383       372       386
       380       379       381       382       380       379       383       384
       380       379       383       385       381       379       383       384
       381       379       383       385       382       381       379       383
       383       385       391       392       383       385       391       395
       383       385       391       396       383       372       386       387
       383       372       386       388       383       372       386       389
       384       383       385       391       384       383       372       386
       385       391       395       393       385       391       396       397
       385       391       396       398       385       391       396       400
       385       383       372       386       387       386       389       390
       388       386       389       390       391       396       398       399
       391       396       400       401       391       396       400       402
       391       396       400       403       391       395       393       403
       391       395       393       394       391       395       393       406
       392       391       395       393       392       391       396       397
       392       391       396       398       392       391       396       400
       393       403       400       396       393       403       400       401
       393       403       400       402       393       403       405       410
       393       395       391       396       394       393       403       400
       394       393       403       404       394       393       403       405
       394       393       406       407       394       393       406       408
       394       393       406       409       395       393       403       400
       395       393       403       404       395       393       403       405
       395       393       406       407       395       393       406       408
       395       393       406       409       395       391       396       397
       395       391       396       398       395       391       396       400
       396       400       402       467       396       400       403       404
       396       400       403       405       397       396       398       399
       397       396       400       401       397       396       400       402
       397       396       400       403       398       396       400       401
       398       396       400       402       398       396       400       403
       399       398       396       400       400       403       405       410
       400       403       393       406       400       402       467       468
       400       402       467       471       400       402       467       472
       401       400       402       467       401       400       403       404
       401       400       403       405       402       467       471       469
       402       467       472       473       402       467       472       474
       402       467       472       476       402       400       403       404
       402       400       403       405       403       405       410       411
       403       405       410       414       403       405       410       415
       403       400       402       467       403       393       406       407
       403       393       406       408       403       393       406       409
       404       403       405       410       404       403       393       406
       405       410       414       412       405       410       415       416
       405       410       415       417       405       410       415       418
       405       403       393       406       410       415       417       430
       410       415       418       419       410       415       418       420
       410       415       418       421       410       414       412       421
       410       414       412       413       410       414       412       425
       411       410       414       412       411       410       415       416
       411       410       415       417       411       410       415       418
       412       425       428       429       412       421       418       415
       412       421       418       419       412       421       418       420
       412       421       423       424       412       414       410       415
       413       412       421       418       413       412       421       422
       413       412       421       423       413       412       425       426
       413       412       425       427       413       412       425       428
       414       412       421       418       414       412       421       422
       414       412       421       423       414       412       425       426
       414       412       425       427       414       412       425       428
       414       410       415       416       414       410       415       417
       414       410       415       418       415       418       420       459
       415       418       421       422       415       418       421       423
       415       417       430       431       415       417       430       434
       415       417       430       435       416       415       417       430
       416       415       418       419       416       415       418       420
       416       415       418       421       417       430       434       432
       417       430       435       436       417       430       435       437
       417       430       435       439       417       415       418       419
       417       415       418       420       417       415       418       421
       418       421       423       424       418       421       412       425
       418       420       459       458       418       420       459       460
       418       420       459       461       418       415       417       430
       419       418       420       459       419       418       421       422
       419       418       421       423       420       459       458       456
       420       418       421       422       420       418       421       423
       421       418       420       459       421       412       425       426
       421       412       425       427       421       412       425       428
       422       421       423       424       422       421       412       425
       423       421       412       425       426       425       428       429
       427       425       428       429       430       435       437       438
       430       435       439       440       430       435       439       441
       430       435       439       443       430       434       432       443
       430       434       432       433       430       434       432       447
       431       430       434       432       431       430       435       436
       431       430       435       437       431       430       435       439
       432       443       439       435       432       443       439       440
       432       443       439       441       432       443       445       446
       432       434       430       435       433       432       443       439
       433       432       443       444       433       432       443       445
       433       432       447       448       433       432       447       449
       433       432       447       450       434       432       443       439
       434       432       443       444       434       432       443       445
       434       432       447       448       434       432       447       449
       434       432       447       450       434       430       435       436
       434       430       435       437       434       430       435       439
       435       439       441       442       435       439       443       444
       435       439       443       445       436       435       437       438
       436       435       439       440       436       435       439       441
       436       435       439       443       437       435       439       440
       437       435       439       441       437       435       439       443
       438       437       435       439       439       443       445       446
       439       443       432       447       440       439       441       442
       440       439       443       444       440       439       443       445
       441       439       443       444       441       439       443       445
       442       441       439       443       443       432       447       448
       443       432       447       449       443       432       447       450
       444       443       445       446       444       443       432       447
       445       443       432       447       451       456       458       459
       451       456       462       463       451       456       462       465
       451       456       462       464       452       451       454       455
       452       451       456       457       452       451       456       458
       452       451       456       462       453       451       454       455
       453       451       456       457       453       451       456       458
       453       451       456       462       454       451       456       457
       454       451       456       458       454       451       456       462
       455       454       451       456       456       462       465       466
       456       458       459       460       456       458       459       461
       457       456       458       459       457       456       462       463
       457       456       462       465       457       456       462       464
       458       456       462       463       458       456       462       465
       458       456       462       464       459       458       456       462
       463       462       465       466       464       462       465       466
       467       472       474       475       467       472       476       477
       467       472       476       478       467       472       476       480
       467       471       469       480       467       471       469       470
       467       471       469       483       468       467       471       469
       468       467       472       473       468       467       472       474
       468       467       472       476       469       483       486       487
       469       480       476       472       469       480       476       477
       469       480       476       478       469       480       482       488
       469       471       467       472       470       469       480       476
       470       469       480       481       470       469       480       482
       470       469       483       484       470       469       483       485
       470       469       483       486       471       469       480       476
       471       469       480       481       471       469       480       482
       471       469       483       484       471       469       483       485
       471       469       483       486       471       467       472       473
       471       467       472       474       471       467       472       476
       472       476       478       479       472       476       480       481
       472       476       480       482       473       472       474       475
       473       472       476       477       473       472       476       478
       473       472       476       480       474       472       476       477
       474       472       476       478       474       472       476       480
       475       474       472       476       476       480       482       488
       476       480       469       483       477       476       478       479
       477       476       480       481       477       476       480       482
       478       476       480       481       478       476       480       482
       479       478       476       480       480       482       488       489
       480       482       488       492       480       482       488       493
       480       469       483       484       480       469       483       485
       480       469       483       486       481       480       482       488
       481       480       469       483       482       488       492       490
       482       488       493       494       482       488       493       495
       482       488       493       497       482       480       469       483
       484       483       486       487       485       483       486       487
       488       493       495       496       488       493       497       498
       488       493       497       499       488       493       497       500
       488       492       490       500       488       492       490       491
       488       492       490       503       489       488       492       490
       489       488       493       494       489       488       493       495
       489       488       493       497       490       500       497       493
       490       500       497       498       490       500       497       499
       490       500       502       507       490       492       488       493
       491       490       500       497       491       490       500       501
       491       490       500       502       491       490       503       504
       491       490       503       505       491       490       503       506
       492       490       500       497       492       490       500       501
       492       490       500       502       492       490       503       504
       492       490       503       505       492       490       503       506
       492       488       493       494       492       488       493       495
       492       488       493       497       493       497       499       564
       493       497       500       501       493       497       500       502
       494       493       495       496       494       493       497       498
       494       493       497       499       494       493       497       500
       495       493       497       498       495       493       497       499
       495       493       497       500       496       495       493       497
       497       500       502       507       497       500       490       503
       497       499       564       565       497       499       564       568
       497       499       564       569       498       497       499       564
       498       497       500       501       498       497       500       502
       499       564       568       566       499       564       569       570
       499       564       569       571       499       564       569       573
       499       497       500       501       499       497       500       502
       500       502       507       508       500       502       507       511
       500       502       507       512       500       497       499       564
       500       490       503       504       500       490       503       505
       500       490       503       506       501       500       502       507
       501       500       490       503       502       507       511       509
       502       507       512       513       502       507       512       514
       502       507       512       515       502       500       490       503
       507       512       514       527       507       512       515       516
       507       512       515       517       507       512       515       518
       507       511       509       518       507       511       509       510
       507       511       509       522       508       507       511       509
       508       507       512       513       508       507       512       514
       508       507       512       515       509       522       525       526
       509       518       515       512       509       518       515       516
       509       518       515       517       509       518       520       521
       509       511       507       512       510       509       518       515
       510       509       518       519       510       509       518       520
       510       509       522       523       510       509       522       524
       510       509       522       525       511       509       518       515
       511       509       518       519       511       509       518       520
       511       509       522       523       511       509       522       524
       511       509       522       525       511       507       512       513
       511       507       512       514       511       507       512       515
       512       515       517       556       512       515       518       519
       512       515       518       520       512       514       527       528
       512       514       527       531       512       514       527       532
       513       512       514       527       513       512       515       516
       513       512       515       517       513       512       515       518
       514       527       531       529       514       527       532       533
       514       527       532       534       514       527       532       536
       514       512       515       516       514       512       515       517
       514       512       515       518       515       518       520       521
       515       518       509       522       515       517       556       555
       515       517       556       557       515       517       556       558
       515       512       514       527       516       515       517       556
       516       515       518       519       516       515       518       520
       517       556       555       553       517       515       518       519
       517       515       518       520       518       515       517       556
       518       509       522       523       518       509       522       524
       518       509       522       525       519       518       520       521
       519       518       509       522       520       518       509       522
       523       522       525       526       524       522       525       526
       527       532       534       535       527       532       536       537
       527       532       536       538       527       532       536       540
       527       531       529       540       527       531       529       530
       527       531       529       544       528       527       531       529
       528       527       532       533       528       527       532       534
       528       527       532       536       529       540       536       532
       529       540       536       537       529       540       536       538
       529       540       542       543       529       531       527       532
       530       529       540       536       530       529       540       541
       530       529       540       542       530       529       544       545
       530       529       544       546       530       529       544       547
       531       529       540       536       531       529       540       541
       531       529       540       542       531       529       544       545
       531       529       544       546       531       529       544       547
       531       527       532       533       531       527       532       534
       531       527       532       536       532       536       538       539
       532       536       540       541       532       536       540       542
       533       532       534       535       533       532       536       537
       533       532       536       538       533       532       536       540
       534       532       536       537       534       532       536       538
       534       532       536       540       535       534       532       536
       536       540       542       543       536       540       529       544
       537       536       538       539       537       536       540       541
       537       536       540       542       538       536       540       541
       538       536       540       542       539       538       536       540
       540       529       544       545       540       529       544       546
       540       529       544       547       541       540       542       543
       541       540       529       544       542       540       529       544
       548       553       555       556       548       553       559       560
       548       553       559       562       548       553       559       561
       549       548       551       552       549       548       553       554
       549       548       553       555       549       548       553       559
       550       548       551       552       550       548       553       554
       550       548       553       555       550       548       553       559
       551       548       553       554       551       548       553       555
       551       548       553       559       552       551       548       553
       553       559       562       563       553       555       556       557
       553       555       556       558       554       553       555       556
       554       553       559       560       554       553       559       562
       554       553       559       561       555       553       559       560
       555       553       559       562       555       553       559       561
       556       555       553       559       560       559       562       563
       561       559       562       563       564       569       571       572
       564       569       573       574       564       569       573       575
       564       569       573       577       564       568       566       577
       564       568       566       567       564       568       566       580
       565       564       568       566       565       564       569       570
       565       564       569       571       565       564       569       573
       566       580       583       584       566       577       573       569
       566       577       573       574       566       577       573       575
       566       577       579       585       566       568       564       569
       567       566       577       573       567       566       577       578
       567       566       577       579       567       566       580       581
       567       566       580       582       567       566       580       583
       568       566       577       573       568       566       577       578
       568       566       577       579       568       566       580       581
       568       566       580       582       568       566       580       583
       568       564       569       570       568       564       569       571
       568       564       569       573       569       573       575       576
       569       573       577       578       569       573       577       579
       570       569       571       572       570       569       573       574
       570       569       573       575       570       569       573       577
       571       569       573       574       571       569       573       575
       571       569       573       577       572       571       569       573
       573       577       579       585       573       577       566       580
       574       573       575       576       574       573       577       578
       574       573       577       579       575       573       577       578
       575       573       577       579       576       575       573       577
       577       579       585       586       577       579       585       589
       577       579       585       590       577       566       580       581
       577       566       580       582       577       566       580       583
       578       577       579       585       578       577       566       580
       579       585       589       587       579       585       590       591
       579       585       590       592       579       585       590       594
       579       577       566       580       581       580       583       584
       582       580       583       584       585       590       592       593
       585       590       594       595       585       590       594       596
       585       590       594       597       585       589       587       597
       585       589       587       588       585       589       587       600
       586       585       589       587       586       585       590       591
       586       585       590       592       586       585       590       594
       587       597       594       590       587       597       594       595
       587       597       594       596       587       597       599       604
       587       589       585       590       588       587       597       594
       588       587       597       598       588       587       597       599
       588       587       600       601       588       587       600       602
       588       587       600       603       589       587       597       594
       589       587       597       598       589       587       597       599
       589       587       600       601       589       587       600       602
       589       587       600       603       589       585       590       591
       589       585       590       592       589       585       590       594
       590       594       596       661       590       594       597       598
       590       594       597       599       591       590       592       593
       591       590       594       595       591       590       594       596
       591       590       594       597       592       590       594       595
       592       590       594       596       592       590       594       597
       593       592       590       594       594       597       599       604
       594       597       587       600       594       596       661       662
       594       596       661       665       594       596       661       666
       595       594       596       661       595       594       597       598
       595       594       597       599       596       661       665       663
       596       661       666       667       596       661       666       668
       596       661       666       670       596       594       597       598
       596       594       597       599       597       599       604       605
       597       599       604       608       597       599       604       609
       597       594       596       661       597       587       600       601
       597       587       600       602       597       587       600       603
       598       597       599       604       598       597       587       600
       599       604       608       606       599       604       609       610
       599       604       609       611       599       604       609       612
       599       597       587       600       604       609       611       624
       604       609       612       613       604       609       612       614
       604       609       612       615       604       608       606       615
       604       608       606       607       604       608       606       619
       605       604       608       606       605       604       609       610
       605       604       609       611       605       604       609       612
       606       619       622       623       606       615       612       609
       606       615       612       613       606       615       612       614
       606       615       617       618       606       608       604       609
       607       606       615       612       607       606       615       616
       607       606       615       617       607       606       619       620
       607       606       619       621       607       606       619       622
       608       606       615       612       608       606       615       616
       608       606       615       617       608       606       619       620
       608       606       619       621       608       606       619       622
       608       604       609       610       608       604       609       611
       608       604       609       612       609       612       614       653
       609       612       615       616       609       612       615       617
       609       611       624       625       609       611       624       628
       609       611       624       629       610       609       611       624
       610       609       612       613       610       609       612       614
       610       609       612       615       611       624       628       626
       611       624       629       630       611       624       629       631
       611       624       629       633       611       609       612       613
       611       609       612       614       611       609       612       615
       612       615       617       618       612       615       606       619
       612       614       653       652       612       614       653       654
       612       614       653       655       612       609       611       624
       613       612       614       653       613       612       615       616
       613       612       615       617       614       653       652       650
       614       612       615       616       614       612       615       617
       615       612       614       653       615       606       619       620
       615       606       619       621       615       606       619       622
       616       615       617       618       616       615       606       619
       617       615       606       619       620       619       622       623
       621       619       622       623       624       629       631       632
       624       629       633       634       624       629       633       635
       624       629       633       637       624       628       626       637
       624       628       626       627       624       628       626       641
       625       624       628       626       625       624       629       630
       625       624       629       631       625       624       629       633
       626       637       633       629       626       637       633       634
       626       637       633       635       626       637       639       640
       626       628       624       629       627       626       637       633
       627       626       637       638       627       626       637       639
       627       626       641       642       627       626       641       643
       627       626       641       644       628       626       637       633
       628       626       637       638       628       626       637       639
       628       626       641       642       628       626       641       643
       628       626       641       644       628       624       629       630
       628       624       629       631       628       624       629       633
       629       633       635       636       629       633       637       638
       629       633       637       639       630       629       631       632
       630       629       633       634       630       629       633       635
       630       629       633       637       631       629       633       634
       631       629       633       635       631       629       633       637
       632       631       629       633       633       637       639       640
       633       637       626       641       634       633       635       636
       634       633       637       638       634       633       637       639
       635       633       637       638       635       633       637       639
       636       635       633       637       637       626       641       642
       637       626       641       643       637       626       641       644
       638       637       639       640       638       637       626       641
       639       637       626       641       645       650       652       653
       645       650       656       657       645       650       656       659
       645       650       656       658       646       645       648       649
       646       645       650       651       646       645       650       652
       646       645       650       656       647       645       648       649
       647       645       650       651       647       645       650       652
       647       645       650       656       648       645       650       651
       648       645       650       652       648       645       650       656
       649       648       645       650       650       656       659       660
       650       652       653       654       650       652       653       655
       651       650       652       653       651       650       656       657
       651       650       656       659       651       650       656       658
       652       650       656       657       652       650       656       659
       652       650       656       658       653       652       650       656
       657       656       659       660       658       656       659       660
       661       666       668       669       661       666       670       671
       661       666       670       672       661       666       670       674
       661       665       663       674       661       665       663       664
       661       665       663       677       662       661       665       663
       662       661       666       667       662       661       666       668
       662       661       666       670       663       677       680       681
       663       674       670       666       663       674       670       671
       663       674       670       672       663       674       676       682
       663       665       661       666       664       663       674       670
       664       663       674       675       664       663       674       676
       664       663       677       678       664       663       677       679
       664       663       677       680       665       663       674       670
       665       663       674       675       665       663       674       676
       665       663       677       678       665       663       677       679
       665       663       677       680       665       661       666       667
       665       661       666       668       665       661       666       670
       666       670       672       673       666       670       674       675
       666       670       674       676       667       666       668       669
       667       666       670       671       667       666       670       672
       667       666       670       674       668       666       670       671
       668       666       670       672       668       666       670       674
       669       668       666       670       670       674       676       682
       670       674       663       677       671       670       672       673
       671       670       674       675       671       670       674       676
       672       670       674       675       672       670       674       676
       673       672       670       674       674       676       682       683
       674       676       682       686       674       676       682       687
       674       663       677       678       674       663       677       679
       674       663       677       680       675       674       676       682
       675       674       663       677       676       682       686       684
       676       682       687       688       676       682       687       689
       676       682       687       691       676       674       663       677
       678       677       680       681       679       677       680       681
       682       687       689       690       682       687       691       692
       682       687       691       693       682       687       691       694
       682       686       684       694       682       686       684       685
       682       686       684       697       683       682       686       684
       683       682       687       688       683       682       687       689
       683       682       687       691       684       694       691       687
       684       694       691       692       684       694       691       693
       684       694       696       701       684       686       682       687
       685       684       694       691       685       684       694       695
       685       684       694       696       685       684       697       698
       685       684       697       699       685       684       697       700
       686       684       694       691       686       684       694       695
       686       684       694       696       686       684       697       698
       686       684       697       699       686       684       697       700
       686       682       687       688       686       682       687       689
       686       682       687       691       687       691       693       758
       687       691       694       695       687       691       694       696
       688       687       689       690       688       687       691       692
       688       687       691       693       688       687       691       694
       689       687       691       692       689       687       691       693
       689       687       691       694       690       689       687       691
       691       694       696       701       691       694       684       697
       691       693       758       759       691       693       758       762
       691       693       758       763       692       691       693       758
       692       691       694       695       692       691       694       696
       693       758       762       760       693       758       763       764
       693       758       763       765       693       758       763       767
       693       691       694       695       693       691       694       696
       694       696       701       702       694       696       701       705
       694       696       701       706       694       691       693       758
       694       684       697       698       694       684       697       699
       694       684       697       700       695       694       696       701
       695       694       684       697       696       701       705       703
       696       701       706       707       696       701       706       708
       696       701       706       709       696       694       684       697
       701       706       708       721       701       706       709       710
       701       706       709       711       701       706       709       712
       701       705       703       712       701       705       703       704
       701       705       703       716       702       701       705       703
       702       701       706       707       702       701       706       708
       702       701       706       709       703       716       719       720
       703       712       709       706       703       712       709       710
       703       712       709       711       703       712       714       715
       703       705       701       706       704       703       712       709
       704       703       712       713       704       703       712       714
       704       703       716       717       704       703       716       718
       704       703       716       719       705       703       712       709
       705       703       712       713       705       703       712       714
       705       703       716       717       705       703       716       718
       705       703       716       719       705       701       706       707
       705       701       706       708       705       701       706       709
       706       709       711       750       706       709       712       713
       706       709       712       714       706       708       721       722
       706       708       721       725       706       708       721       726
       707       706       708       721       707       706       709       710
       707       706       709       711       707       706       709       712
       708       721       725       723       708       721       726       727
       708       721       726       728       708       721       726       730
       708       706       709       710       708       706       709       711
       708       706       709       712       709       712       714       715
       709       712       703       716       709       711       750       749
       709       711       750       751       709       711       750       752
       709       706       708       721       710       709       711       750
       710       709       712       713       710       709       712       714
       711       750       749       747       711       709       712       713
       711       709       712       714       712       709       711       750
       712       703       716       717       712       703       716       718
       712       703       716       719       713       712       714       715
       713       712       703       716       714       712       703       716
       717       716       719       720       718       716       719       720
       721       726       728       729       721       726       730       731
       721       726       730       732       721       726       730       734
       721       725       723       734       721       725       723       724
       721       725       723       738       722       721       725       723
       722       721       726       727       722       721       726       728
       722       721       726       730       723       734       730       726
       723       734       730       731       723       734       730       732
       723       734       736       737       723       725       721       726
       724       723       734       730       724       723       734       735
       724       723       734       736       724       723       738       739
       724       723       738       740       724       723       738       741
       725       723       734       730       725       723       734       735
       725       723       734       736       725       723       738       739
       725       723       738       740       725       723       738       741
       725       721       726       727       725       721       726       728
       725       721       726       730       726       730       732       733
       726       730       734       735       726       730       734       736
       727       726       728       729       727       726       730       731
       727       726       730       732       727       726       730       734
       728       726       730       731       728       726       730       732
       728       726       730       734       729       728       726       730
       730       734       736       737       730       734       723       738
       731       730       732       733       731       730       734       735
       731       730       734       736       732       730       734       735
       732       730       734       736       733       732       730       734
       734       723       738       739       734       723       738       740
       734       723       738       741       735       734       736       737
       735       734       723       738       736       734       723       738
       742       747       749       750       742       747       753       754
       742       747       753       756       742       747       753       755
       743       742       745       746       743       742       747       748
       743       742       747       749       743       742       747       753
       744       742       745       746       744       742       747       748
       744       742       747       749       744       742       747       753
       745       742       747       748       745       742       747       749
       745       742       747       753       746       745       742       747
       747       753       756       757       747       749       750       751
       747       749       750       752       748       747       749       750
       748       747       753       754       748       747       753       756
       748       747       753       755       749       747       753       754
       749       747       753       756       749       747       753       755
       750       749       747       753       754       753       756       757
       755       753       756       757       758       763       765       766
       758       763       767       768       758       763       767       769
       758       763       767       771       758       762       760       771
       758       762       760       761       758       762       760       774
       759       758       762       760       759       758       763       764
       759       758       763       765       759       758       763       767
       760       774       777       778       760       771       767       763
       760       771       767       768       760       771       767       769
       760       771       773       779       760       762       758       763
       761       760       771       767       761       760       771       772
       761       760       771       773       761       760       774       775
       761       760       774       776       761       760       774       777
       762       760       771       767       762       760       771       772
       762       760       771       773       762       760       774       775
       762       760       774       776       762       760       774       777
       762       758       763       764       762       758       763       765
       762       758       763       767       763       767       769       770
       763       767       771       772       763       767       771       773
       764       763       765       766       764       763       767       768
       764       763       767       769       764       763       767       771
       765       763       767       768       765       763       767       769
       765       763       767       771       766       765       763       767
       767       771       773       779       767       771       760       774
       768       767       769       770       768       767       771       772
       768       767       771       773       769       767       771       772
       769       767       771       773       770       769       767       771
       771       773       779       780       771       773       779       783
       771       773       779       784       771       760       774       775
       771       760       774       776       771       760       774       777
       772       771       773       779       772       771       760       774
       773       779       783       781       773       779       784       785
       773       779       784       786       773       779       784       788
       773       771       760       774       775       774       777       778
       776       774       777       778       779       784       786       787
       779       784       788       789       779       784       788       790
       779       784       788       791       779       783       781       791
       779       783       781       782       779       783       781       794
       780       779       783       781       780       779       784       785
       780       779       784       786       780       779       784       788
       781       791       788       784       781       791       788       789
       781       791       788       790       781       791       793       798
       781       783       779       784       782       781       791       788
       782       781       791       792       782       781       791       793
       782       781       794       795       782       781       794       796
       782       781       794       797       783       781       791       788
       783       781       791       792       783       781       791       793
       783       781       794       795       783       781       794       796
       783       781       794       797       783       779       784       785
       783       779       784       786       783       779       784       788
       784       788       790       855       784       788       791       792
       784       788       791       793       785       784       786       787
       785       784       788       789       785       784       788       790
       785       784       788       791       786       784       788       789
       786       784       788       790       786       784       788       791
       787       786       784       788       788       791       793       798
       788       791       781       794       788       790       855       856
       788       790       855       859       788       790       855       860
       789       788       790       855       789       788       791       792
       789       788       791       793       790       855       859       857
       790       855       860       861       790       855       860       862
       790       855       860       864       790       788       791       792
       790       788       791       793       791       793       798       799
       791       793       798       802       791       793       798       803
       791       788       790       855       791       781       794       795
       791       781       794       796       791       781       794       797
       792       791       793       798       792       791       781       794
       793       798       802       800       793       798       803       804
       793       798       803       805       793       798       803       806
       793       791       781       794       798       803       805       818
       798       803       806       807       798       803       806       808
       798       803       806       809       798       802       800       809
       798       802       800       801       798       802       800       813
       799       798       802       800       799       798       803       804
       799       798       803       805       799       798       803       806
       800       813       816       817       800       809       806       803
       800       809       806       807       800       809       806       808
       800       809       811       812       800       802       798       803
       801       800       809       806       801       800       809       810
       801       800       809       811       801       800       813       814
       801       800       813       815       801       800       813       816
       802       800       809       806       802       800       809       810
       802       800       809       811       802       800       813       814
       802       800       813       815       802       800       813       816
       802       798       803       804       802       798       803       805
       802       798       803       806       803       806       808       847
       803       806       809       810       803       806       809       811
       803       805       818       819       803       805       818       822
       803       805       818       823       804       803       805       818
       804       803       806       807       804       803       806       808
       804       803       806       809       805       818       822       820
       805       818       823       824       805       818       823       825
       805       818       823       827       805       803       806       807
       805       803       806       808       805       803       806       809
       806       809       811       812       806       809       800       813
       806       808       847       846       806       808       847       848
       806       808       847       849       806       803       805       818
       807       806       808       847       807       806       809       810
       807       806       809       811       808       847       846       844
       808       806       809       810       808       806       809       811
       809       806       808       847       809       800       813       814
       809       800       813       815       809       800       813       816
       810       809       811       812       810       809       800       813
       811       809       800       813       814       813       816       817
       815       813       816       817       818       823       825       826
       818       823       827       828       818       823       827       829
       818       823       827       831       818       822       820       831
       818       822       820       821       818       822       820       835
       819       818       822       820       819       818       823       824
       819       818       823       825       819       818       823       827
       820       831       827       823       820       831       827       828
       820       831       827       829       820       831       833       834
       820       822       818       823       821       820       831       827
       821       820       831       832       821       820       831       833
       821       820       835       836       821       820       835       837
       821       820       835       838       822       820       831       827
       822       820       831       832       822       820       831       833
       822       820       835       836       822       820       835       837
       822       820       835       838       822       818       823       824
       822       818       823       825       822       818       823       827
       823       827       829       830       823       827       831       832
       823       827       831       833       824       823       825       826
       824       823       827       828       824       823       827       829
       824       823       827       831       825       823       827       828
       825       823       827       829       825       823       827       831
       826       825       823       827       827       831       833       834
       827       831       820       835       828       827       829       830
       828       827       831       832       828       827       831       833
       829       827       831       832       829       827       831       833
       830       829       827       831       831       820       835       836
       831       820       835       837       831       820       835       838
       832       831       833       834       832       831       820       835
       833       831       820       835       839       844       846       847
       839       844       850       851       839       844       850       853
       839       844       850       852       840       839       842       843
       840       839       844       845       840       839       844       846
       840       839       844       850       841       839       842       843
       841       839       844       845       841       839       844       846
       841       839       844       850       842       839       844       845
       842       839       844       846       842       839       844       850
       843       842       839       844       844       850       853       854
       844       846       847       848       844       846       847       849
       845       844       846       847       845       844       850       851
       845       844       850       853       845       844       850       852
       846       844       850       851       846       844       850       853
       846       844       850       852       847       846       844       850
       851       850       853       854       852       850       853       854
       855       860       862       863       855       860       864       865
       855       860       864       866       855       860       864       868
       855       859       857       868       855       859       857       858
       855       859       857       872       856       855       859       857
       856       855       860       861       856       855       860       862
       856       855       860       864       857       872       875       876
       857       868       864       860       857       868       864       865
       857       868       864       866       857       868       870       871
       857       859       855       860       858       857       868       864
       858       857       868       869       858       857       868       870
       858       857       872       873       858       857       872       874
       858       857       872       875       859       857       868       864
       859       857       868       869       859       857       868       870
       859       857       872       873       859       857       872       874
       859       857       872       875       859       855       860       861
       859       855       860       862       859       855       860       864
       860       864       866       867       860       864       868       869
       860       864       868       870       861       860       862       863
       861       860       864       865       861       860       864       866
       861       860       864       868       862       860       864       865
       862       860       864       866       862       860       864       868
       863       862       860       864       864       868       870       871
       864       868       857       872       865       864       866       867
       865       864       868       869       865       864       868       870
       866       864       868       869       866       864       868       870
       867       866       864       868       868       857       872       873
       868       857       872       874       868       857       872       875
       869       868       870       871       869       868       857       872
       870       868       857       872       873       872       875       876
       874       872       875       876

       0 !NIMPHI: impropers


       0 !NDON: donors


       0 !NACC: acceptors


       0 !NNB

         0         0         0         0         0         0         0         0
         0         0         0         0         0         0         0         0
         0         0         0         0         0         0         0         0
         0         0         0         0         0         0         0         0
         0         0         0         0         0         0         0         0
         0         0         0         0         0         0         0         0
         0         0         0         0         0         0         0         0
         0         0         0         0         0         0         0         0
         0         0         0         0         0         0         0         0
         0         0         0         0         0         0         0         0
         0         0         0         0         0         0         0         0
         0         0         0         0         0         0         0         0
         0         0         0         0         0         0         0         0
         0         0         0         0         0         0         0         0
         0         0         0         0         0         0         0         0
         0         0         0         0         0         0         0         0
         0         0         0         0         0         0         0         0
         0         0         0         0         0         0         0         0
         0         0         0         0         0         0         0         0
         0         0         0         0         0         0         0         0
         0         0         0         0         0         0         0         0
         0         0         0         0         0         0         0         0
         0         0         0         0         0         0         0         0
         0         0         0         0         0         0         0         0
         0         0         0         0         0         0         0         0
         0         0         0         0         0         0         0         0
         0         0         0         0         0         0         0         0
         0         0         0         0         0         0         0         0
         0         0         0         0         0         0         0         0
         0         0         0         0         0         0         0         0
         0         0         0         0         0         0         0         0
         0         0         0         0         0         0         0         0
         0         0         0         0         0         0         0         0
         0         0         0         0         0         0         0         0
         0         0         0         0         0         0         0         0
         0         0         0         0         0         0         0         0
         0         0         0         0         0         0         0         0
         0         0         0         0         0         0         0         0
         0         0         0         0         0         0         0         0
         0         0         0         0         0         0         0         0
         0         0         0         0         0         0         0         0
         0         0         0         0         0         0         0         0
         0         0         0         0         0         0         0         0
         0         0         0         0         0         0         0         0
         0         0         0         0         0         0         0         0
         0         0         0         0         0         0         0         0
         0         0         0         0         0         0         0         0
         0         0         0         0         0         0         0         0
         0         0         0         0         0         0         0         0
         0         0         0         0         0         0         0         0
         0         0         0         0         0         0         0         0
         0         0         0         0         0         0         0         0
         0         0         0         0         0         0         0         0
         0         0         0         0         0         0         0         0
         0         0         0         0         0         0         0         0
         0         0         0         0         0         0         0         0
         0         0         0         0         0         0         0         0
         0         0         0         0         0         0         0         0
         0         0         0         0         0         0         0         0
         0         0         0         0         0         0         0         0
         0         0         0         0         0         0         0         0
         0         0         0         0         0         0         0         0
         0         0         0         0         0         0         0         0
         0         0         0         0         0         0         0         0
         0         0         0         0         0         0         0         0
         0         0         0         0         0         0         0         0
         0         0         0         0         0         0         0         0
         0         0         0         0         0         0         0         0
         0         0         0         0         0         0         0         0
         0         0         0         0         0         0         0         0
         0         0         0         0         0         0         0         0
         0         0         0         0         0         0         0         0
         0         0         0         0         0         0         0         0
         0         0         0         0         0         0         0         0
         0         0         0         0         0         0         0         0
         0         0         0         0         0         0         0         0
         0         0         0         0         0         0         0         0
         0         0         0         0         0         0         0         0
         0         0         0         0         0         0         0         0
         0         0         0         0         0         0         0         0
         0         0         0         0         0         0         0         0
         0         0         0         0         0         0         0         0
         0         0         0         0         0         0         0         0
         0         0         0         0         0         0         0         0
         0         0         0         0         0         0         0         0
         0         0         0         0         0         0         0         0
         0         0         0         0         0         0         0         0
         0         0         0         0         0         0         0         0
         0         0         0         0         0         0         0         0
         0         0         0         0         0         0         0         0
         0         0         0         0         0         0         0         0
         0         0         0         0         0         0         0         0
         0         0         0         0         0         0         0         0
         0         0         0         0         0         0         0         0
         0         0         0         0         0         0         0         0
         0         0         0         0         0         0         0         0
         0         0         0         0         0         0         0         0
         0         0         0         0         0         0         0         0
         0         0         0         0         0         0         0         0
         0         0         0         0         0         0         0         0
         0         0         0         0         0         0         0         0
         0         0         0         0         0         0         0         0
         0         0         0         0         0         0         0         0
         0         0         0         0         0         0         0         0
         0         0         0         0         0         0         0         0
         0         0         0         0         0         0         0         0
         0         0         0         0         0         0         0         0
         0         0         0         0         0         0         0         0
         0         0         0         0         0         0         0         0
         0         0         0         0         0         0         0         0
         0         0         0         0         0         0         0         0
         0         0         0         0         0         0         0         0
         0         0         0         0         0         0         0         0
         0         0         0         0         0         0         0         0
         0         0         0         0         0         0         0         0
         0         0         0         0         0         0         0         0
         0         0         0         0         0         0         0         0
         0         0         0         0         0         0         0         0
         0         0         0         0         0         0         0         0
         0         0         0         0         0         0         0         0
         0         0         0         0         0         0         0         0
         0         0         0         0         0         0         0         0
         0         0         0         0         0         0         0         0
         0         0         0         0         0         0         0         0
         0         0         0         0         0         0         0         0
         0         0         0         0         0         0         0         0
         0         0         0         0         0         0         0         0
         0         0         0         0         0         0         0         0
         0         0         0         0         0         0         0         0
         0         0         0         0         0         0         0         0
         0         0         0         0         0         0         0         0
         0         0         0         0         0         0         0         0
         0         0         0         0         0         0         0         0
         0         0         0         0         0         0         0         0
         0         0         0         0         0         0         0         0
         0         0         0         0         0         0         0         0
         0         0         0         0         0         0         0         0
         0         0         0         0         0         0         0         0
         0         0         0         0         0         0         0         0
         0         0         0         0         0         0         0         0
         0         0         0         0         0         0         0         0
         0         0         0         0         0         0         0         0
         0         0         0         0         0         0         0         0
         0         0         0         0         0         0         0         0
         0         0         0         0         0         0         0         0
         0         0         0         0         0         0         0         0
         0         0         0         0         0         0         0         0
         0         0         0         0         0         0         0         0
         0         0         0         0         0         0         0         0
         0         0         0         0         0         0         0         0
         0         0         0         0         0         0         0         0
         0         0         0         0         0         0         0         0
         0         0         0         0         0         0         0         0
         0         0         0         0         0         0         0         0
         0         0         0         0         0         0         0         0
         0         0         0         0         0         0         0         0
         0         0         0         0         0         0         0         0
         0         0         0         0         0         0         0         0
         0         0         0         0         0         0         0         0
         0         0         0         0         0         0         0         0
         0         0         0         0         0         0         0         0
         0         0         0         0         0         0         0         0
         0         0         0         0         0         0         0         0
         0         0         0         0         0         0         0         0
         0         0         0         0         0         0         0         0
         0         0         0         0         0         0         0         0
         0         0         0         0         0         0         0         0
         0         0         0         0         0         0         0         0
         0         0         0         0         0         0         0         0
         0         0         0         0         0         0         0         0
         0         0         0         0         0         0         0         0
         0         0         0         0         0         0         0         0
         0         0         0         0         0         0         0         0
         0         0         0         0         0         0         0         0
         0         0         0         0         0         0         0         0
         0         0         0         0         0         0         0         0
         0         0         0         0         0         0         0         0
         0         0         0         0         0         0         0         0
         0         0         0         0         0         0         0         0
         0         0         0         0         0         0         0         0
         0         0         0         0         0         0         0         0
         0         0         0         0         0         0         0         0
         0         0         0         0         0         0         0         0
         0         0         0         0         0         0         0         0
         0         0         0         0         0         0         0         0
         0         0         0         0         0         0         0         0
         0         0         0         0         0         0         0         0
         0         0         0         0         0         0         0         0
         0         0         0         0         0         0         0         0
         0         0         0         0         0         0         0         0
         0         0         0         0         0         0         0         0
         0         0         0         0         0         0         0         0
         0         0         0         0         0         0         0         0
         0         0         0         0         0         0         0         0
         0         0         0         0         0         0         0         0
         0         0         0         0         0         0         0         0
         0         0         0         0         0         0         0         0
         0         0         0         0         0         0         0         0
         0         0         0         0         0         0         0         0
         0         0         0         0         0         0         0         0
         0         0         0         0         0         0         0         0
         0         0         0         0         0         0         0         0
         0         0         0         0         0         0         0         0
         0         0         0         0         0         0         0         0
         0         0         0         0         0         0         0         0
         0         0         0         0         0         0         0         0
         0         0         0         0         0         0         0         0
         0         0         0         0         0         0         0         0
         0         0         0         0         0         0         0         0
         0         0         0         0         0         0         0         0
         0         0         0         0         0         0         0         0
         0         0         0         0         0         0         0         0
         0         0         0         0         0         0         0         0
         0         0         0         0         0         0         0         0
         0         0         0         0         0         0         0         0
         0         0         0         0         0         0         0         0
         0         0         0         0         0         0         0         0
         0         0         0         0         0         0         0         0
         0         0         0         0         0         0         0         0
         0         0         0         0         0         0         0         0
         0         0         0         0         0         0         0         0
         0         0         0         0         0         0         0         0
         0         0         0         0         0         0         0         0
         0         0         0         0         0         0         0         0
         0         0         0         0         0         0         0         0
         0         0         0         0         0         0         0         0
         0         0         0         0         0         0         0         0
         0         0         0         0         0         0         0         0
         0         0         0         0         0         0         0         0
         0         0         0         0         0         0         0         0
         0         0         0         0         0         0         0         0
         0         0         0         0         0         0         0         0
         0         0         0         0         0         0         0         0
         0         0         0         0         0         0         0         0
         0         0         0         0         0         0         0         0
         0         0         0         0         0         0         0         0
         0         0         0         0         0         0         0         0
         0         0         0         0         0         0         0         0
         0         0         0         0         0         0         0         0
         0         0         0         0         0         0         0         0
         0         0         0         0         0         0         0         0
         0         0         0         0         0         0         0         0
         0         0         0         0         0         0         0         0
         0         0         0         0         0         0         0         0
         0         0         0         0         0         0         0         0
         0         0         0         0         0         0         0         0
         0         0         0         0         0         0         0         0
         0         0         0         0         0         0         0         0
         0         0         0         0         0         0         0         0
         0         0         0         0         0         0         0         0
         0         0         0         0         0         0         0         0
         0         0         0         0         0         0         0         0
         0         0         0         0         0         0         0         0
         0         0         0         0         0         0         0         0
         0         0         0         0         0         0         0         0
         0         0         0         0         0         0         0         0
         0         0         0         0         0         0         0         0
         0         0         0         0         0         0         0         0
         0         0         0         0         0         0         0         0
         0         0         0         0         0         0         0         0
         0         0         0         0         0         0         0         0
         0         0         0         0         0         0         0         0
         0         0         0         0         0         0         0         0
         0         0         0         0         0         0         0         0
         0         0         0         0         0         0         0         0
         0         0         0         0         0         0         0         0
         0         0         0         0         0         0         0         0
         0         0         0         0         0         0         0         0
         0         0         0         0         0         0         0         0
         0         0         0         0         0         0         0         0
         0         0         0         0         0         0         0         0
         0         0         0         0         0         0         0         0
         0         0         0         0         0         0         0         0
         0         0         0         0         0         0         0         0
         0         0         0         0         0         0         0         0
         0         0         0         0         0         0         0         0
         0         0         0         0         0         0         0         0
         0         0         0         0         0         0         0         0
         0         0         0         0         0         0         0         0
         0         0         0         0         0         0         0         0
         0         0         0         0         0         0         0         0
         0         0         0         0         0         0         0         0
         0         0         0         0         0         0         0         0
         0         0         0         0         0         0         0         0
         0         0         0         0         0         0         0         0
         0         0         0         0         0         0         0         0
         0         0         0         0         0         0         0         0
         0         0         0         0         0         0         0         0
         0         0         0         0         0         0         0         0
         0         0         0         0         0         0         0         0
         0         0         0         0         0         0         0         0
         0         0         0         0         0         0         0         0
         0         0         0         0         0         0         0         0
         0         0         0         0         0         0         0         0
         0         0         0         0         0         0         0         0
         0         0         0         0         0         0         0         0
         0         0         0         0         0         0         0         0
         0         0         0         0         0         0         0         0
         0         0         0         0         0         0         0         0
         0         0         0         0         0         0         0         0
         0         0         0         0         0         0         0         0
         0         0         0         0         0         0         0         0
         0         0         0         0         0         0         0         0
         0         0         0         0         0         0         0         0
         0         0         0         0         0         0         0         0
         0         0         0         0         0         0         0         0
         0         0         0         0         0         0         0         0
         0         0         0         0         0         0         0         0
         0         0         0         0         0         0         0         0
         0         0         0         0         0         0         0         0
         0         0         0         0         0         0         0         0
         0         0         0         0         0         0         0         0
         0         0         0         0         0         0         0         0
         0         0         0         0         0         0         0         0
         0         0         0         0         0         0         0         0
         0         0         0         0         0         0         0         0
         0         0         0         0         0         0         0         0
         0         0         0         0         0         0         0         0
         0         0         0         0         0         0         0         0
         0         0         0         0         0         0         0         0
         0         0         0         0         0         0         0         0
         0         0         0         0         0         0         0         0
         0         0         0         0         0         0         0         0
         0         0         0         0         0         0         0         0
         0         0         0         0         0         0         0         0
         0         0         0         0         0         0         0         0
         0         0         0         0         0         0         0         0
         0         0         0         0         0         0         0         0
         0         0         0         0         0         0         0         0
         0         0         0         0         0         0         0         0
         0         0         0         0         0         0         0         0
         0         0         0         0         0         0         0         0
         0         0         0         0         0         0         0         0
         0         0         0         0         0         0         0         0
         0         0         0         0         0         0         0         0
         0         0         0         0         0         0         0         0
         0         0         0         0         0         0         0         0
         0         0         0         0         0         0         0         0
         0         0         0         0         0         0         0         0
         0         0         0         0         0         0         0         0
         0         0         0         0         0         0         0         0
         0         0         0         0         0         0         0         0
         0         0         0         0         0         0         0         0
         0         0         0         0         0         0         0         0
         0         0         0         0         0         0         0         0
         0         0         0         0         0         0         0         0
         0         0         0         0         0         0         0         0
         0         0         0         0         0         0         0         0
         0         0         0         0         0         0         0         0
         0         0         0         0         0         0         0         0
         0         0         0         0         0         0         0         0
         0         0         0         0         0         0         0         0
         0         0         0         0         0         0         0         0
         0         0         0         0         0         0         0         0
         0         0         0         0         0         0         0         0
         0         0         0         0         0         0         0         0
         0         0         0         0         0         0         0         0
         0         0         0         0         0         0         0         0
         0         0         0         0         0         0         0         0
         0         0         0         0         0         0         0         0
         0         0         0         0         0         0         0         0
         0         0         0         0         0         0         0         0
         0         0         0         0         0         0         0         0
         0         0         0         0         0         0         0         0
         0         0         0         0         0         0         0         0
         0         0         0         0         0         0         0         0
         0         0         0         0         0         0         0         0
         0         0         0         0         0         0         0         0
         0         0         0         0         0         0         0         0
         0         0         0         0         0         0         0         0
         0         0         0         0         0         0         0         0
         0         0         0         0         0         0         0         0
         0         0         0         0         0         0         0         0
         0         0         0         0         0         0         0         0
         0         0         0         0         0         0         0         0
         0         0         0         0         0         0         0         0
         0         0         0         0         0         0         0         0
         0         0         0         0         0         0         0         0
         0         0         0         0         0         0         0         0
         0         0         0         0         0         0         0         0
         0         0         0         0         0         0         0         0
         0         0         0         0         0         0         0         0
         0         0         0         0         0         0         0         0
         0         0         0         0         0         0         0         0
         0         0         0         0         0         0         0         0
         0         0         0         0         0         0         0         0
         0         0         0         0         0         0         0         0
         0         0         0         0         0         0         0         0
         0         0         0         0         0         0         0         0
         0         0         0         0         0         0         0         0
         0         0         0         0         0         0         0         0
         0         0         0         0         0         0         0         0
         0         0         0         0         0         0         0         0
         0         0         0         0         0         0         0         0
         0         0         0         0         0         0         0         0
         0         0         0         0         0         0         0         0
         0         0         0         0         0         0         0         0
         0         0         0         0         0         0         0         0
         0         0         0         0         0         0         0         0
         0         0         0         0         0         0         0         0
         0         0         0         0         0         0         0         0
         0         0         0         0         0         0         0         0
         0         0         0         0         0         0         0         0
         0         0         0         0         0         0         0         0
         0         0         0         0         0         0         0         0
         0         0         0         0         0         0         0         0
         0         0         0         0         0         0         0         0
         0         0         0         0         0         0         0         0
         0         0         0         0         0         0         0         0
         0         0         0         0         0         0         0         0
         0         0         0         0         0         0         0         0
         0         0         0         0         0         0         0         0
         0         0         0         0         0         0         0         0
         0         0         0         0         0         0         0         0
         0         0         0         0         0         0         0         0
         0         0         0         0         0         0         0         0
         0         0         0         0         0         0         0         0
         0         0         0         0         0         0         0         0
         0         0         0         0         0         0         0         0
         0         0         0         0         0         0         0         0
         0         0         0         0         0         0         0         0
         0         0         0         0         0         0         0         0
         0         0         0         0         0         0         0         0
         0         0         0         0         0         0         0         0
         0         0         0         0         0         0         0         0
         0         0         0         0         0         0         0         0
         0         0         0         0         0         0         0         0
         0         0         0         0         0         0         0         0
         0         0         0         0         0         0         0         0
         0         0         0         0         0         0         0         0
         0         0         0         0         0         0         0         0
         0         0         0         0         0         0         0         0
         0         0         0         0         0         0         0         0
         0         0         0         0         0         0         0         0
         0         0         0         0         0         0         0         0
         0         0         0         0         0         0         0         0
         0         0         0         0         0         0         0         0
         0         0         0         0         0         0         0         0
         0         0         0         0         0         0         0         0
         0         0         0         0         0         0         0         0
         0         0         0         0         0         0         0         0
         0         0         0         0         0         0         0         0
         0         0         0         0         0         0         0         0
         0         0         0         0         0         0         0         0
         0         0         0         0         0         0         0         0
         0         0         0         0         0         0         0         0
         0         0         0         0         0         0         0         0
         0         0         0         0         0         0         0         0
         0         0         0         0         0         0         0         0
         0         0         0         0         0         0         0         0
         0         0         0         0         0         0         0         0
         0         0         0         0         0         0         0         0
         0         0         0         0         0         0         0         0
         0         0         0         0         0         0         0         0
         0         0         0         0         0         0         0         0
         0         0         0         0         0         0         0         0
         0         0         0         0         0         0         0         0
         0         0         0         0         0         0         0         0
         0         0         0         0         0         0         0         0
         0         0         0         0         0         0         0         0
         0         0         0         0         0         0         0         0
         0         0         0         0         0         0         0         0
         0         0         0         0         0         0         0         0
         0         0         0         0         0         0         0         0
         0         0         0         0         0         0         0         0
         0         0         0         0         0         0         0         0
         0         0         0         0         0         0         0         0
         0         0         0         0         0         0         0         0
         0         0         0         0         0         0         0         0
         0         0         0         0         0         0         0         0
         0         0         0         0         0         0         0         0
         0         0         0         0         0         0         0         0
         0         0         0         0         0         0         0         0
         0         0         0         0         0         0         0         0
         0         0         0         0         0         0         0         0
         0         0         0         0         0         0         0         0
         0         0         0         0         0         0         0         0
         0         0         0         0         0         0         0         0
         0         0         0         0         0         0         0         0
         0         0         0         0         0         0         0         0
         0         0         0         0         0         0         0         0
         0         0         0         0         0         0         0         0
         0         0         0         0         0         0         0         0
         0         0         0         0         0         0         0         0
         0         0         0         0         0         0         0         0
         0         0         0         0         0         0         0         0
         0         0         0         0         0         0         0         0
         0         0         0         0         0         0         0         0
         0         0         0         0         0         0         0         0
         0         0         0         0         0         0         0         0
         0         0         0         0         0         0         0         0
         0         0         0         0         0         0         0         0
         0         0         0         0         0         0         0         0
         0         0         0         0         0         0         0         0
         0         0         0         0         0         0         0         0
         0         0         0         0         0         0         0         0
         0         0         0         0         0         0         0         0
         0         0         0         0         0         0         0         0
         0         0         0         0         0         0         0         0
         0         0         0         0         0         0         0         0
         0         0         0         0         0         0         0         0
         0         0         0         0         0         0         0         0
         0         0         0         0         0         0         0         0
         0         0         0         0         0         0         0         0
         0         0         0         0         0         0         0         0
         0         0         0         0         0         0         0         0
         0         0         0         0         0         0         0         0
         0         0         0         0         0         0         0         0
         0         0         0         0         0         0         0         0
         0         0         0         0         0         0         0         0
         0         0         0         0         0         0         0         0
         0         0         0         0         0         0         0         0
         0         0         0         0         0         0         0         0
         0         0         0         0         0         0         0         0
         0         0         0         0         0         0         0         0
         0         0         0         0         0         0         0         0
         0         0         0         0         0         0         0         0
         0         0         0         0         0         0         0         0
         0         0         0         0         0         0         0         0
         0         0         0         0         0         0         0         0
         0         0         0         0         0         0         0         0
         0         0         0         0         0         0         0         0
         0         0         0         0         0         0         0         0
         0         0         0         0         0         0         0         0
         0         0         0         0         0         0         0         0
         0         0         0         0         0         0         0         0
         0         0         0         0         0         0         0         0
         0         0         0         0         0         0         0         0
         0         0         0         0         0         0         0         0
         0         0         0         0         0         0         0         0
         0         0         0         0         0         0         0         0
         0         0         0         0         0         0         0         0
         0         0         0         0         0         0         0         0
         0         0         0         0         0         0         0         0
         0         0         0         0         0         0         0         0
         0         0         0         0         0         0         0         0
         0         0         0         0         0         0         0         0
         0         0         0         0         0         0         0         0
         0         0         0         0         0         0         0         0
         0         0         0         0         0         0         0         0
         0         0         0         0         0         0         0         0
         0         0         0         0         0         0         0         0
         0         0         0         0         0         0         0         0
         0         0         0         0         0         0         0         0
         0         0         0         0         0         0         0         0
         0         0         0         0         0         0         0         0
         0         0         0         0         0         0         0         0
         0         0         0         0         0         0         0         0
         0         0         0         0         0         0         0         0
         0         0         0         0         0         0         0         0
         0         0         0         0         0         0         0         0
         0         0         0         0         0         0         0         0
         0         0         0         0         0         0         0         0
         0         0         0         0         0         0         0         0
         0         0         0         0         0         0         0         0
         0         0         0         0         0         0         0         0
         0         0         0         0         0         0         0         0
         0         0         0         0         0         0         0         0
         0         0         0         0         0         0         0         0
         0         0         0         0         0         0         0         0
         0         0         0         0         0         0         0         0
         0         0         0         0         0         0         0         0
         0         0         0         0         0         0         0         0
         0         0         0         0         0         0         0         0
         0         0         0         0         0         0         0         0
         0         0         0         0         0         0         0         0
         0         0         0         0         0         0         0         0
         0         0         0         0         0         0         0         0
         0         0         0         0         0         0         0         0
         0         0         0         0         0         0         0         0
         0         0         0         0         0         0         0         0
         0         0         0         0         0         0         0         0
         0         0         0         0         0         0         0         0
         0         0         0         0         0         0         0         0
         0         0         0         0         0         0         0         0
         0         0         0         0         0         0         0         0
         0         0         0         0         0         0         0         0
         0         0         0         0         0         0         0         0
         0         0         0         0         0         0         0         0
         0         0         0         0         0         0         0         0
         0         0         0         0         0         0         0         0
         0         0         0         0         0         0         0         0
         0         0         0         0         0         0         0         0
         0         0         0         0         0         0         0         0
         0         0         0         0         0         0         0         0
         0         0         0         0         0         0         0         0
         0         0         0         0         0         0         0         0
         0         0         0         0         0         0         0         0
         0         0         0         0         0         0         0         0
         0         0         0         0         0         0         0         0
         0         0         0         0         0         0         0         0
         0         0         0         0         0         0         0         0
         0         0         0         0         0         0         0         0
         0         0         0         0         0         0         0         0
         0         0         0         0         0         0         0         0
         0         0         0         0         0         0         0         0
         0         0         0         0         0         0         0         0
         0         0         0         0         0         0         0         0
         0         0         0         0         0         0         0         0
         0         0         0         0         0         0         0         0
         0         0         0         0         0         0         0         0
         0         0         0         0         0         0         0         0
         0         0         0         0         0         0         0         0
         0         0         0         0         0         0         0         0
         0         0         0         0         0         0         0         0
         0         0         0         0         0         0         0         0
         0         0         0         0         0         0         0         0
         0         0         0         0         0         0         0         0
         0         0         0         0         0         0         0         0
         0         0         0         0         0         0         0         0
         0         0         0         0         0         0         0         0
         0         0         0         0         0         0         0         0
         0         0         0         0         0         0         0         0
         0         0         0         0         0         0         0         0
         0         0         0         0         0         0         0         0
         0         0         0         0         0         0         0         0
         0         0         0         0         0         0         0         0
         0         0         0         0         0         0         0         0
         0         0         0         0         0         0         0         0
         0         0         0         0         0         0         0         0
         0         0         0         0         0         0         0         0
         0         0         0         0         0         0         0         0
         0         0         0         0         0         0         0         0
         0         0         0         0         0         0         0         0
         0         0         0         0         0         0         0         0
         0         0         0         0         0         0         0         0
         0         0         0         0         0         0         0         0
         0         0         0         0         0         0         0         0
         0         0         0         0         0         0         0         0
         0         0         0         0         0         0         0         0
         0         0         0         0         0         0         0         0
         0         0         0         0         0         0         0         0
         0         0         0         0         0         0         0         0
         0         0         0         0         0         0         0         0
         0         0         0         0         0         0         0         0
         0         0         0         0         0         0         0         0
         0         0         0         0         0         0         0         0
         0         0         0         0         0         0         0         0
         0         0         0         0         0         0         0         0
         0         0         0         0         0         0         0         0
         0         0         0         0         0         0         0         0
         0         0         0         0         0         0         0         0
         0         0         0         0         0         0         0         0
         0         0         0         0         0         0         0         0
         0         0         0         0         0         0         0         0
         0         0         0         0         0         0         0         0
         0         0         0         0         0         0         0         0
         0         0         0         0         0         0         0         0
         0         0         0         0         0         0         0         0
         0         0         0         0         0         0         0         0
         0         0         0         0         0         0         0         0
         0         0         0         0         0         0         0         0
         0         0         0         0         0         0         0         0
         0         0         0         0         0         0         0         0
         0         0         0         0         0         0         0         0
         0         0         0         0         0         0         0         0
         0         0         0         0         0         0         0         0
         0         0         0         0         0         0         0         0
         0         0         0         0         0         0         0         0
         0         0         0         0         0         0         0         0
         0         0         0         0         0         0         0         0
         0         0         0         0         0         0         0         0
         0         0         0         0         0         0         0         0
         0         0         0         0         0         0         0         0
         0         0         0         0         0         0         0         0
         0         0         0         0         0         0         0         0
         0         0         0         0         0         0         0         0
         0         0         0         0         0         0         0         0
         0         0         0         0         0         0         0         0
         0         0         0         0         0         0         0         0
         0         0         0         0         0         0         0         0
         0         0         0         0         0         0         0         0
         0         0         0         0         0         0         0         0
         0         0         0         0         0         0         0         0
         0         0         0         0         0         0         0         0
         0         0         0         0         0         0         0         0
         0         0         0         0         0         0         0         0
         0         0         0         0         0         0         0         0
         0         0         0         0         0         0         0         0
         0         0         0         0         0         0         0         0
         0         0         0         0         0         0         0         0
         0         0         0         0         0         0         0         0
         0         0         0         0         0         0         0         0
         0         0         0         0         0         0         0         0
         0         0         0         0         0         0         0         0
         0         0         0         0         0         0         0         0
         0         0         0         0         0         0         0         0
         0         0         0         0         0         0         0         0
         0         0         0         0         0         0         0         0
         0         0         0         0         0         0         0         0
         0         0         0         0         0         0         0         0
         0         0         0         0         0         0         0         0
         0         0         0         0         0         0         0         0
         0         0         0         0         0         0         0         0
         0         0         0         0         0         0         0         0
         0         0         0         0         0         0         0         0
         0         0         0         0         0         0         0         0
         0         0         0         0         0         0         0         0
         0         0         0         0         0         0         0         0
         0         0         0         0         0         0         0         0
         0         0         0         0         0         0         0         0
         0         0         0         0         0         0         0         0
         0         0         0         0         0         0         0         0
         0         0         0         0         0         0         0         0
         0         0         0         0         0         0         0         0
         0         0         0         0         0         0         0         0
         0         0         0         0         0         0         0         0
         0         0         0         0         0         0         0         0
         0         0         0         0         0         0         0         0
         0         0         0         0         0         0         0         0
         0         0         0         0         0         0         0         0
         0         0         0         0         0         0         0         0
         0         0         0         0         0         0         0         0
         0         0         0         0         0         0         0         0
         0         0         0         0         0         0         0         0
         0         0         0         0         0         0         0         0
         0         0         0         0         0         0         0         0
         0         0         0         0         0         0         0         0
         0         0         0         0         0         0         0         0
         0         0         0         0         0         0         0         0
         0         0         0         0         0         0         0         0
         0         0         0         0         0         0         0         0
         0         0         0         0         0         0         0         0
         0         0         0         0         0         0         0         0
         0         0         0         0         0         0         0         0
         0         0         0         0         0         0         0         0
         0         0         0         0         0         0         0         0
         0         0         0         0         0         0         0         0
         0         0         0         0         0         0         0         0
         0         0         0         0         0         0         0         0
         0         0         0         0         0         0         0         0
         0         0         0         0         0         0         0         0
         0         0         0         0         0         0         0         0
         0         0         0         0         0         0         0         0
         0         0         0         0         0         0         0         0
         0         0         0         0         0         0         0         0
         0         0         0         0         0         0         0         0
         0         0         0         0         0         0         0         0
         0         0         0         0         0         0         0         0
         0         0         0         0         0         0         0         0
         0         0         0         0         0         0         0         0
         0         0         0         0         0         0         0         0
         0         0         0         0         0         0         0         0
         0         0         0         0         0         0         0         0
         0         0         0         0         0         0         0         0
         0         0         0         0         0         0         0         0
         0         0         0         0         0         0         0         0
         0         0         0         0         0         0         0         0
         0         0         0         0         0         0         0         0
         0         0         0         0         0         0         0         0
         0         0         0         0         0         0         0         0
         0         0         0         0         0         0         0         0
         0         0         0         0         0         0         0         0
         0         0         0         0         0         0         0         0
         0         0         0         0         0         0         0         0
         0         0         0         0         0         0         0         0
         0         0         0         0         0         0         0         0
         0         0         0         0         0         0         0         0
         0         0         0         0         0         0         0         0
         0         0         0         0         0         0         0         0
         0         0         0         0         0         0         0         0
         0         0         0         0         0         0         0         0
         0         0         0         0         0         0         0         0
         0         0         0         0         0         0         0         0
         0         0         0         0         0         0         0         0
         0         0         0         0         0         0         0         0
         0         0         0         0         0         0         0         0
         0         0         0         0         0         0         0         0
         0         0         0         0         0         0         0         0
         0         0         0         0         0         0         0         0
         0         0         0         0         0         0         0         0
         0         0         0         0         0         0         0         0
         0         0         0         0         0         0         0         0
         0         0         0         0         0         0         0         0
         0         0         0         0         0         0         0         0
         0         0         0         0         0         0         0         0
         0         0         0         0         0         0         0         0
         0         0         0         0         0         0         0         0
         0         0         0         0         0         0         0         0
         0         0         0         0         0         0         0         0
         0         0         0         0         0         0         0         0
         0         0         0         0         0         0         0         0
         0         0         0         0         0         0         0         0
         0         0         0         0         0         0         0         0
         0         0         0         0         0         0         0         0
         0         0         0         0         0         0         0         0
         0         0         0         0         0         0         0         0
         0         0         0         0         0         0         0         0
         0         0         0         0         0         0         0         0
         0         0         0         0         0         0         0         0
         0         0         0         0         0         0         0         0
         0         0         0         0         0         0         0         0
         0         0         0         0         0         0         0         0
         0         0         0         0         0         0         0         0
         0         0         0         0         0         0         0         0
         0         0         0         0         0         0         0         0
         0         0         0         0         0         0         0         0
         0         0         0         0         0         0         0         0
         0         0         0         0         0         0         0         0
         0         0         0         0         0         0         0         0
         0         0         0         0         0         0         0         0
         0         0         0         0         0         0         0         0
         0         0         0         0         0         0         0         0
         0         0         0         0         0         0         0         0
         0         0         0         0         0         0         0         0
         0         0         0         0         0         0         0         0
         0         0         0         0         0         0         0         0
         0         0         0         0         0         0         0         0
         0         0         0         0         0         0         0         0
         0         0         0         0         0         0         0         0
         0         0         0         0         0         0         0         0
         0         0         0         0         0         0         0         0
         0         0         0         0         0         0         0         0
         0         0         0         0         0         0         0         0
         0         0         0         0         0         0         0         0
         0         0         0         0         0         0         0         0
         0         0         0         0         0         0         0         0
         0         0         0         0         0         0         0         0
         0         0         0         0         0         0         0         0
         0         0         0         0         0         0         0         0
         0         0         0         0         0         0         0         0
         0         0         0         0         0         0         0         0
         0         0         0         0         0         0         0         0
         0         0         0         0         0         0         0         0
         0         0         0         0         0         0         0         0
         0         0         0         0         0         0         0         0
         0         0         0         0         0         0         0         0
         0         0         0         0         0         0         0         0
         0         0         0         0         0         0         0         0
         0         0         0         0         0         0         0         0
         0         0         0         0         0         0         0         0
         0         0         0         0         0         0         0         0
         0         0         0         0         0         0         0         0
         0         0         0         0         0         0         0         0
         0         0         0         0         0         0         0         0
         0         0         0         0         0         0         0         0
         0         0         0         0         0         0         0         0
         0         0         0         0         0         0         0         0
         0         0         0         0         0         0         0         0
         0         0         0         0         0         0         0         0
         0         0         0         0         0         0         0         0
         0         0         0         0         0         0         0         0
         0         0         0         0         0         0         0         0
         0         0         0         0         0         0         0         0
         0         0         0         0         0         0         0         0
         0         0         0         0         0         0         0         0
         0         0         0         0         0         0         0         0
         0         0         0         0         0         0         0         0
         0         0         0         0         0         0         0         0
         0         0         0         0         0         0         0         0
         0         0         0         0         0         0         0         0
         0         0         0         0         0         0         0         0
         0         0         0         0         0         0         0         0
         0         0         0         0         0         0         0         0
         0         0         0         0         0         0         0         0
         0         0         0         0         0         0         0         0
         0         0         0         0         0         0         0         0
         0         0         0         0         0         0         0         0
         0         0         0         0         0         0         0         0
         0         0         0         0         0         0         0         0
         0         0         0         0         0         0         0         0
         0         0         0         0         0         0         0         0
         0         0         0         0         0         0         0         0
         0         0         0         0         0         0         0         0
         0         0         0         0         0         0         0         0
         0         0         0         0         0         0         0         0
         0         0         0         0         0         0         0         0
         0         0         0         0         0         0         0         0
         0         0         0         0         0         0         0         0
         0         0         0         0         0         0         0         0
         0         0         0         0         0         0         0         0
         0         0         0         0         0         0         0         0
         0         0         0         0         0         0         0         0
         0         0         0         0         0         0         0         0
         0         0         0         0         0         0         0         0
         0         0         0         0         0         0         0         0
         0         0         0         0         0         0         0         0
         0         0         0         0         0         0         0         0
         0         0         0         0         0         0         0         0
         0         0         0         0         0         0         0         0
         0         0         0         0         0         0         0         0
         0         0         0         0         0         0         0         0
         0         0         0         0         0         0         0         0
         0         0         0         0         0         0         0         0
         0         0         0         0         0         0         0         0
         0         0         0         0         0         0         0         0
         0         0         0         0         0         0         0         0
         0         0         0         0         0         0         0         0
         0         0         0         0         0         0         0         0
         0         0         0         0         0         0         0         0
         0         0         0         0         0         0         0         0
         0         0         0         0         0         0         0         0
         0         0         0         0         0         0         0         0
         0         0         0         0         0         0         0         0
         0         0         0         0         0         0         0         0
         0         0         0         0         0         0         0         0
         0         0         0         0         0         0         0         0
         0         0         0         0         0         0         0         0
         0         0         0         0         0         0         0         0
         0         0         0         0         0         0         0         0
         0         0         0         0         0         0         0         0
         0         0         0         0         0         0         0         0
         0         0         0         0         0         0         0         0
         0         0         0         0         0         0         0         0
         0         0         0         0         0         0         0         0
         0         0         0         0         0         0         0         0
         0         0         0         0         0         0         0         0
         0         0         0         0         0         0         0         0
         0         0         0         0         0         0         0         0
         0         0         0         0         0         0         0         0
         0         0         0         0         0         0         0         0
         0         0         0         0         0         0         0         0
         0         0         0         0         0         0         0         0
         0         0         0         0         0         0         0         0
         0         0         0         0         0         0         0         0
         0         0         0         0         0         0         0         0
         0         0         0         0         0         0         0         0
         0         0         0         0         0         0         0         0
         0         0         0         0         0         0         0         0
         0         0         0         0         0         0         0         0
         0         0         0         0         0         0         0         0
         0         0         0         0         0         0         0         0
         0         0         0         0         0         0         0         0
         0         0         0         0         0         0         0         0
         0         0         0         0         0         0         0         0
         0         0         0         0         0         0         0         0
         0         0         0         0         0         0         0         0
         0         0         0         0         0         0         0         0
         0         0         0         0         0         0         0         0
         0         0         0         0         0         0         0         0
         0         0         0         0         0         0         0         0
         0         0         0         0         0         0         0         0
         0         0         0         0         0         0         0         0
         0         0         0         0         0         0         0         0
         0         0         0         0         0         0         0         0
         0         0         0         0         0         0         0         0
         0         0         0         0         0         0         0         0
         0         0         0         0         0         0         0         0
         0         0         0         0         0         0         0         0
         0         0         0         0         0         0         0         0
         0         0         0         0         0         0         0         0
         0         0         0         0         0         0         0         0
         0         0         0         0         0         0         0         0
         0         0         0         0         0         0         0         0
         0         0         0         0         0         0         0         0
         0         0         0         0         0         0         0         0
         0         0         0         0         0         0         0         0
         0         0         0         0         0         0         0         0
         0         0         0         0         0         0         0         0
         0         0         0         0         0         0         0         0
         0         0         0         0         0         0         0         0
         0         0         0         0         0         0         0         0
         0         0         0         0         0         0         0         0
         0         0         0         0         0         0         0         0
         0         0         0         0         0         0         0         0
         0         0         0         0         0         0         0         0
         0         0         0         0         0         0         0         0
         0         0         0         0         0         0         0         0
         0         0         0         0         0         0         0         0
         0         0         0         0         0         0         0         0
         0         0         0         0         0         0         0         0
         0         0         0         0         0         0         0         0
         0         0         0         0         0         0         0         0
         0         0         0         0         0         0         0         0
         0         0         0         0         0         0         0         0
         0         0         0         0         0         0         0         0
         0         0         0         0         0         0         0         0
         0         0         0         0         0         0         0         0
         0         0         0         0         0         0         0         0
         0         0         0         0         0         0         0         0
         0         0         0         0         0         0         0         0
         0         0         0         0         0         0         0         0
         0         0         0         0         0         0         0         0
         0         0         0         0         0         0         0         0
         0         0         0         0         0         0         0         0
         0         0         0         0         0         0         0         0
         0         0         0         0         0         0         0         0
         0         0         0         0         0         0         0         0
         0         0         0         0         0         0         0         0
         0         0         0         0         0         0         0         0
         0         0         0         0         0         0         0         0
         0         0         0         0         0         0         0         0
         0         0         0         0         0         0         0         0
         0         0         0         0         0         0         0         0
         0         0         0         0         0         0         0         0
         0         0         0         0         0         0         0         0
         0         0         0         0         0         0         0         0
         0         0         0         0         0         0         0         0
         0         0         0         0         0         0         0         0
         0         0         0         0         0         0         0         0
         0         0         0         0         0         0         0         0
         0         0         0         0         0         0         0         0
         0         0         0         0         0         0         0         0
         0         0         0         0         0         0         0         0
         0         0         0         0         0         0         0         0
         0         0         0         0         0         0         0         0
         0         0         0         0         0         0         0         0
         0         0         0         0         0         0         0         0
         0         0         0         0         0         0         0         0
         0         0         0         0         0         0         0         0
         0         0         0         0         0         0         0         0
         0         0         0         0         0         0         0         0
         0         0         0         0         0         0         0         0
         0         0         0         0         0         0         0         0
         0         0         0         0         0         0         0         0
         0         0         0         0         0         0         0         0
         0         0         0         0         0         0         0         0
         0         0         0         0         0         0         0         0
         0         0         0         0         0         0         0         0
         0         0         0         0         0         0         0         0
         0         0         0         0         0         0         0         0
         0         0         0         0         0         0         0         0
         0         0         0         0         0         0         0         0
         0         0         0         0         0         0         0         0
         0         0         0         0         0         0         0         0
         0         0         0         0         0         0         0         0
         0         0         0         0         0         0         0         0
         0         0         0         0         0         0         0         0
         0         0         0         0         0         0         0         0
         0         0         0         0         0         0         0         0
         0         0         0         0         0         0         0         0
         0         0         0         0         0         0         0         0
         0         0         0         0         0         0         0         0
         0         0         0         0         0         0         0         0
         0         0         0         0         0         0         0         0
         0         0         0         0         0         0         0         0
         0         0         0         0         0         0         0         0
         0         0         0         0         0         0         0         0
         0         0         0         0         0         0         0         0
         0         0         0         0         0         0         0         0
         0         0         0         0         0         0         0         0
         0         0         0         0         0         0         0         0
         0         0         0         0         0         0         0         0
         0         0         0         0         0         0         0         0
         0         0         0         0         0         0         0         0
         0         0         0         0         0         0         0         0
         0         0         0         0         0         0         0         0
         0         0         0         0         0         0         0         0
         0         0         0         0         0         0         0         0
         0         0         0         0         0         0         0         0
         0         0         0         0         0         0         0         0
         0         0         0         0         0         0         0         0
         0         0         0         0         0         0         0         0
         0         0         0         0         0         0         0         0
         0         0         0         0         0         0         0         0
         0         0         0         0         0         0         0         0
         0         0         0         0         0         0         0         0
         0         0         0         0         0         0         0         0
         0         0         0         0         0         0         0         0
         0         0         0         0         0         0         0         0
         0         0         0         0         0         0         0         0
         0         0         0         0         0         0         0         0
         0         0         0         0         0         0         0         0
         0         0         0         0         0         0         0         0
         0         0         0         0         0         0         0         0
         0         0         0         0         0         0         0         0
         0         0         0         0         0         0         0         0
         0         0         0         0         0         0         0         0
         0         0         0         0         0         0         0         0
         0         0         0         0         0         0         0         0
         0         0         0         0         0         0         0         0
         0         0         0         0         0         0         0         0
         0         0         0         0         0         0         0         0
         0         0         0         0         0         0         0         0
         0         0         0         0         0         0         0         0
         0         0         0         0         0         0         0         0
         0         0         0         0         0         0         0         0
         0         0         0         0         0         0         0         0
         0         0         0         0         0         0         0         0
         0         0         0         0         0         0         0         0
         0         0         0         0         0         0         0         0
         0         0         0         0         0         0         0         0
         0         0         0         0         0         0         0         0
         0         0         0         0         0         0         0         0
         0         0         0         0         0         0         0         0
         0         0         0         0         0         0         0         0
         0         0         0         0         0         0         0         0
         0         0         0         0         0         0         0         0
         0         0         0         0         0         0         0         0
         0         0         0         0         0         0         0         0
         0         0         0         0         0         0         0         0
         0         0         0         0         0         0         0         0
         0         0         0         0         0         0         0         0
         0         0         0         0         0         0         0         0
         0         0         0         0         0         0         0         0
         0         0         0         0         0         0         0         0
         0         0         0         0         0         0         0         0
         0         0         0         0         0         0         0         0
         0         0         0         0         0         0         0         0
         0         0         0         0         0         0         0         0
         0         0         0         0         0         0         0         0
         0         0         0         0         0         0         0         0
         0         0         0         0         0         0         0         0
         0         0         0         0         0         0         0         0
         0         0         0         0         0         0         0         0
         0         0         0         0         0         0         0         0
         0         0         0         0         0         0         0         0
         0         0         0         0         0         0         0         0
         0         0         0         0         0         0         0         0
         0         0         0         0         0         0         0         0
         0         0         0         0         0         0         0         0
         0         0         0         0         0         0         0         0
         0         0         0         0         0         0         0         0
         0         0         0         0         0         0         0         0
         0         0         0         0         0         0         0         0
         0         0         0         0         0         0         0         0
         0         0         0         0         0         0         0         0
         0         0         0         0         0         0         0         0
         0         0         0         0         0         0         0         0
         0         0         0         0         0         0         0         0
         0         0         0         0         0         0         0         0
         0         0         0         0         0         0         0         0
         0         0         0         0         0         0         0         0
         0         0         0         0         0         0         0         0
         0         0         0         0         0         0         0         0
         0         0         0         0         0         0         0         0
         0         0         0         0         0         0         0         0
         0         0         0         0         0         0         0         0
         0         0         0         0         0         0         0         0
         0         0         0         0         0         0         0         0
         0         0         0         0         0         0         0         0
         0         0         0         0         0         0         0         0
         0         0         0         0         0         0         0         0
         0         0         0         0         0         0         0         0
         0         0         0         0         0         0         0         0
         0         0         0         0         0         0         0         0
         0         0         0         0         0         0         0         0
         0         0         0         0         0         0         0         0
         0         0         0         0         0         0         0         0
         0         0         0         0         0         0         0         0
         0         0         0         0         0         0         0         0
         0         0         0         0         0         0         0         0
         0         0         0         0         0         0         0         0
         0         0         0         0         0         0         0         0
         0         0         0         0         0         0         0         0
         0         0         0         0         0         0         0         0
         0         0         0         0         0         0         0         0
         0         0         0         0         0         0         0         0
         0         0         0         0         0         0         0         0
         0         0         0         0         0         0         0         0
         0         0         0         0         0         0         0         0
         0         0         0         0         0         0         0         0
         0         0         0         0         0         0         0         0
         0         0         0         0         0         0         0         0
         0         0         0         0         0         0         0         0
         0         0         0         0         0         0         0         0
         0         0         0         0         0         0         0         0
         0         0         0         0         0         0         0         0
         0         0         0         0         0         0         0         0
         0         0         0         0         0         0         0         0
         0         0         0         0         0         0         0         0
         0         0         0         0         0         0         0         0
         0         0         0         0         0         0         0         0
         0         0         0         0         0         0         0         0
         0         0         0         0         0         0         0         0
         0         0         0         0         0         0         0         0
         0         0         0         0         0         0         0         0
         0         0         0         0         0         0         0         0
         0         0         0         0         0         0         0         0
         0         0         0         0         0         0         0         0
         0         0         0         0         0         0         0         0
         0         0         0         0         0         0         0         0
         0         0         0         0         0         0         0         0
         0         0         0         0         0         0         0         0
         0         0         0         0         0         0         0         0
         0         0         0         0         0         0         0         0
         0         0         0         0         0         0         0         0
         0         0         0         0         0         0         0         0
         0         0         0         0         0         0         0         0
         0         0         0         0         0         0         0         0
         0         0         0         0         0         0         0         0
         0         0         0         0         0         0         0         0
         0         0         0         0         0         0         0         0
         0         0         0         0         0         0         0         0
         0         0         0         0         0         0         0         0
         0         0         0         0         0         0         0         0
         0         0         0         0         0         0         0         0
         0         0         0         0         0         0         0         0
         0         0         0         0         0         0         0         0
         0         0         0         0         0         0         0         0
         0         0         0         0         0         0         0         0
         0         0         0         0         0         0         0         0
         0         0         0         0         0         0         0         0
         0         0         0         0         0         0         0         0
         0         0         0         0         0         0         0         0
         0         0         0         0         0         0         0         0
         0         0         0         0         0         0         0         0
         0         0         0         0         0         0         0         0
         0         0         0         0         0         0         0         0
         0         0         0         0         0         0         0         0
         0         0         0         0         0         0         0         0
         0         0         0         0         0         0         0         0
         0         0         0         0         0         0         0         0
         0         0         0         0         0         0         0         0
         0         0         0         0         0         0         0         0
         0         0         0         0         0         0         0         0
         0         0         0         0         0         0         0         0
         0         0         0         0         0         0         0         0
         0         0         0         0         0         0         0         0
         0         0         0         0         0         0         0         0
         0         0         0         0         0         0         0         0
         0         0         0         0         0         0         0         0
         0         0         0         0         0         0         0         0
         0         0         0         0         0         0         0         0
         0         0         0         0         0         0         0         0
         0         0         0         0         0         0         0         0
         0         0         0         0         0         0         0         0
         0         0         0         0         0         0         0         0
         0         0         0         0         0         0         0         0
         0         0         0         0         0         0         0         0
         0         0         0         0         0         0         0         0
         0         0         0         0         0         0         0         0
         0         0         0         0         0         0         0         0
         0         0         0         0         0         0         0         0
         0         0         0         0         0         0         0         0
         0         0         0         0         0         0         0         0
         0         0         0         0         0         0         0         0
         0         0         0         0         0         0         0         0
         0         0         0         0         0         0         0         0
         0         0         0         0         0         0         0         0
         0         0         0         0         0         0         0         0
         0         0         0         0         0         0         0         0
         0         0         0         0         0         0         0         0
         0         0         0         0         0         0         0         0
         0         0         0         0         0         0         0         0
         0         0         0         0         0         0         0         0
         0         0         0         0         0         0         0         0
         0         0         0         0         0         0         0         0
         0         0         0         0         0         0         0         0
         0         0         0         0         0         0         0         0
         0         0         0         0         0         0         0         0
         0         0         0         0         0         0         0         0
         0         0         0         0         0         0         0         0
         0         0         0         0         0         0         0         0
         0         0         0         0         0         0         0         0
         0         0         0         0         0         0         0         0
         0         0         0         0         0         0         0         0
         0         0         0         0         0         0         0         0
         0         0         0         0         0         0         0         0
         0         0         0         0         0         0         0         0
         0         0         0         0         0         0         0         0
         0         0         0         0         0         0         0         0
         0         0         0         0         0         0         0         0
         0         0         0         0         0         0         0         0
         0         0         0         0         0         0         0         0
         0         0         0         0         0         0         0         0
         0         0         0         0         0         0         0         0
         0         0         0         0         0         0         0         0
         0         0         0         0         0         0         0         0
         0         0         0         0         0         0         0         0
         0         0         0         0         0         0         0         0
         0         0         0         0         0         0         0         0
         0         0         0         0         0         0         0         0
         0         0         0         0         0         0         0         0
         0         0         0         0         0         0         0         0
         0         0         0         0         0         0         0         0
         0         0         0         0         0         0         0         0
         0         0         0         0         0         0         0         0
         0         0         0         0         0         0         0         0
         0         0         0         0         0         0         0         0
         0         0         0         0         0         0         0         0
         0         0         0         0         0         0         0         0
         0         0         0         0         0         0         0         0
         0         0         0         0         0         0         0         0
         0         0         0         0         0         0         0         0
         0         0         0         0         0         0         0         0
         0         0         0         0         0         0         0         0
         0         0         0         0         0         0         0         0
         0         0         0         0         0         0         0         0
         0         0         0         0         0         0         0         0
         0         0         0         0         0         0         0         0
         0         0         0         0         0         0         0         0
         0         0         0         0         0         0         0         0
         0         0         0         0         0         0         0         0
         0         0         0         0         0         0         0         0
         0         0         0         0         0         0         0         0
         0         0         0         0         0         0         0         0
         0         0         0         0         0         0         0         0
         0         0         0         0         0         0         0         0
         0         0         0         0         0         0         0         0
         0         0         0         0         0         0         0         0
         0         0         0         0         0         0         0         0
         0         0         0         0         0         0         0         0
         0         0         0         0         0         0         0         0
         0         0         0         0         0         0         0         0
         0         0         0         0         0         0         0         0
         0         0         0         0         0         0         0         0
         0         0         0         0         0         0         0         0
         0         0         0         0         0         0         0         0
         0         0         0         0         0         0         0         0
         0         0         0         0         0         0         0         0
         0         0         0         0         0         0         0         0
         0         0         0         0         0         0         0         0
         0         0         0         0         0         0         0         0
         0         0         0         0         0         0         0         0
         0         0         0         0         0         0         0         0
         0         0         0         0         0         0         0         0
         0         0         0         0         0         0         0         0
         0         0         0         0         0         0         0         0
         0         0         0         0         0         0         0         0
         0         0         0         0         0         0         0         0
         0         0         0         0         0         0         0         0
         0         0         0         0         0         0         0         0
         0         0         0         0         0         0         0         0
         0         0         0         0         0         0         0         0
         0         0         0         0         0         0         0         0
         0         0         0         0         0         0         0         0
         0         0         0         0         0         0         0         0
         0         0         0         0         0         0         0         0
         0         0         0         0         0         0         0         0
         0         0         0         0         0         0         0         0
         0         0         0         0         0         0         0         0
         0         0         0         0         0         0         0         0
         0         0         0         0         0         0         0         0
         0         0         0         0         0         0         0         0
         0         0         0         0         0         0         0         0
         0         0         0         0         0         0         0         0
         0         0         0         0         0         0         0         0
         0         0         0         0         0         0         0         0
         0         0         0         0         0         0         0         0
         0         0         0         0         0         0         0         0
         0         0         0         0         0         0         0         0
         0         0         0         0         0         0         0         0
         0         0         0         0         0         0         0         0
         0         0         0         0         0         0         0         0
         0         0         0         0         0         0         0         0
         0         0         0         0         0         0         0         0
         0         0         0         0         0         0         0         0
         0         0         0         0         0         0         0         0
         0         0         0         0         0         0         0         0
         0         0         0         0         0         0         0         0
         0         0         0         0         0         0         0         0
         0         0         0         0         0         0         0         0
         0         0         0         0         0         0         0         0
         0         0         0         0         0         0         0         0
         0         0         0         0         0         0         0         0
         0         0         0         0         0         0         0         0
         0         0         0         0         0         0         0         0
         0         0         0         0         0         0         0         0
         0         0         0         0         0         0         0         0
         0         0         0         0         0         0         0         0
         0         0         0         0         0         0         0         0
         0         0         0         0         0         0         0         0
         0         0         0         0         0         0         0         0
         0         0         0         0         0         0         0         0
         0         0         0         0         0         0         0         0
         0         0         0         0         0         0         0         0
         0         0         0         0         0         0         0         0
         0         0         0         0         0         0         0         0
         0         0         0         0         0         0         0         0
         0         0         0         0         0         0         0         0
         0         0         0         0         0         0         0         0
         0         0         0         0         0         0         0         0
         0         0         0         0         0         0         0         0
         0         0         0         0         0         0         0         0
         0         0         0         0         0         0         0         0
         0         0         0         0         0         0         0         0
         0         0         0         0         0         0         0         0
         0         0         0         0         0         0         0         0
         0         0         0         0         0         0         0         0
         0         0         0         0         0         0         0         0
         0         0         0         0         0         0         0         0
         0         0         0         0         0         0         0         0
         0         0         0         0         0         0         0         0
         0         0         0         0         0         0         0         0
         0         0         0         0         0         0         0         0
         0         0         0         0         0         0         0         0
         0         0         0         0         0         0         0         0
         0         0         0         0         0         0         0         0
         0         0         0         0         0         0         0         0
         0         0         0         0         0         0         0         0
         0         0         0         0         0         0         0         0
         0         0         0         0         0         0         0         0
         0         0         0         0         0         0         0         0
         0         0         0         0         0         0         0         0
         0         0         0         0         0         0         0         0
         0         0         0         0         0         0         0         0
         0         0         0         0         0         0         0         0
         0         0         0         0         0         0         0         0
         0         0         0         0         0         0         0         0
         0         0         0         0         0         0         0         0
         0         0         0         0         0         0         0         0
         0         0         0         0         0         0         0         0
         0         0         0         0         0         0         0         0
         0         0         0         0         0         0         0         0
         0         0         0         0         0         0         0         0
         0         0         0         0         0         0         0         0
         0         0         0         0         0         0         0         0
         0         0         0         0         0         0         0         0
         0         0         0         0         0         0         0         0
         0         0         0         0         0         0         0         0
         0         0         0         0         0         0         0         0
         0         0         0         0         0         0         0         0
         0         0         0         0         0         0         0         0
         0         0         0         0         0         0         0         0
         0         0         0         0         0         0         0         0
         0         0         0         0         0         0         0         0
         0         0         0         0         0         0         0         0
         0         0         0         0         0         0         0         0
         0         0         0         0         0         0         0         0
         0         0         0         0         0         0         0         0
         0         0         0         0         0         0         0         0
         0         0         0         0         0         0         0         0
         0         0         0         0         0         0         0         0
         0         0         0         0         0         0         0         0
         0         0         0         0         0         0         0         0
         0         0         0         0         0         0         0         0
         0         0         0         0         0         0         0         0
         0         0         0         0         0         0         0         0
         0         0         0         0         0         0         0         0
         0         0         0         0         0         0         0         0
         0         0         0         0         0         0         0         0
         0         0         0         0         0         0         0         0
         0         0         0         0         0         0         0         0
         0         0         0         0         0         0         0         0
         0         0         0         0         0         0         0         0
         0         0         0         0         0         0         0         0
         0         0         0         0         0         0         0         0
         0         0         0         0         0         0         0         0
         0         0         0         0         0         0         0         0
         0         0         0         0         0         0         0         0
         0         0         0         0         0         0         0         0
         0         0         0         0         0         0         0         0
         0         0         0         0         0         0         0         0
         0         0         0         0         0         0         0         0
         0         0         0         0         0         0         0         0
         0         0         0         0         0         0         0         0
         0         0         0         0         0         0         0         0
         0         0         0         0         0         0         0         0
         0         0         0         0         0         0         0         0
         0         0         0         0         0         0         0         0
         0         0         0         0         0         0         0         0
         0         0         0         0         0         0         0         0
         0         0         0         0         0         0         0         0
         0         0         0         0         0         0         0         0
         0         0         0         0         0         0         0         0
         0         0         0         0         0         0         0         0
         0         0         0         0         0         0         0         0
         0         0         0         0         0         0         0         0
         0         0         0         0         0         0         0         0
         0         0         0         0         0         0         0         0
         0         0         0         0         0         0         0         0
         0         0         0         0         0         0         0         0
         0         0         0         0         0         0         0         0
         0         0         0         0         0         0         0         0
         0         0         0         0         0         0         0         0
         0         0         0         0         0         0         0         0
         0         0         0         0         0         0         0         0
         0         0         0         0         0         0         0         0
         0         0         0         0         0         0         0         0
         0         0         0         0         0         0         0         0
         0         0         0         0         0         0         0         0
         0         0         0         0         0         0         0         0
         0         0         0         0         0         0         0         0
         0         0         0         0         0         0         0         0
         0         0         0         0         0         0         0         0
         0         0         0         0         0         0         0         0
         0         0         0         0         0         0         0         0
         0         0         0         0         0         0         0         0
         0         0         0         0         0         0         0         0
         0         0         0         0         0         0         0         0
         0         0         0         0         0         0         0         0
         0         0         0         0         0         0         0         0
         0         0         0         0         0         0         0         0
         0         0         0         0         0         0         0         0
         0         0         0         0         0         0         0         0
         0         0         0         0         0         0         0         0
         0         0         0         0         0         0         0         0
         0         0         0         0         0         0         0         0
         0         0         0         0         0         0         0         0
         0         0         0         0         0         0         0         0
         0         0         0         0         0         0         0         0
         0         0         0         0         0         0         0         0
         0         0         0         0         0         0         0         0
         0         0         0         0         0         0         0         0
         0         0         0         0         0         0         0         0
         0         0         0         0         0         0         0         0
         0         0         0         0         0         0         0         0
         0         0         0         0         0         0         0         0
         0         0         0         0         0         0         0         0
         0         0         0         0         0         0         0         0
         0         0         0         0         0         0         0         0
         0         0         0         0         0         0         0         0
         0         0         0         0         0         0         0         0
         0         0         0         0         0         0         0         0
         0         0         0         0         0         0         0         0
         0         0         0         0         0         0         0         0
         0         0         0         0         0         0         0         0
         0         0         0         0         0         0         0         0
         0         0         0         0         0         0         0         0
         0         0         0         0         0         0         0         0
         0         0         0         0         0         0         0         0
         0         0         0         0         0         0         0         0
         0         0         0         0         0         0         0         0
         0         0         0         0         0         0         0         0
         0         0         0         0         0         0         0         0
         0         0         0         0         0         0         0         0
         0         0         0         0         0         0         0         0
         0         0         0         0         0         0         0         0
         0         0         0         0         0         0         0         0
         0         0         0         0         0         0         0         0
         0         0         0         0         0         0         0         0
         0         0         0         0         0         0         0         0
         0         0         0         0         0         0         0         0
         0         0         0         0         0         0         0         0
         0         0         0         0         0         0         0         0
         0         0         0         0         0         0         0         0
         0         0         0         0         0         0         0         0
         0         0         0         0         0         0         0         0
         0         0         0         0         0         0         0         0
         0         0         0         0         0         0         0         0
         0         0         0         0         0         0         0         0
         0         0         0         0         0         0         0         0
         0         0         0         0         0         0         0         0
         0         0         0         0         0         0         0         0
         0         0         0         0         0         0         0         0
         0         0         0         0         0         0         0         0
         0         0         0         0         0         0         0         0
         0         0         0         0         0         0         0         0
         0         0         0         0         0         0         0         0
         0         0         0         0         0         0         0         0
         0         0         0         0         0         0         0         0
         0         0         0         0         0         0         0         0
         0         0         0         0         0         0         0         0
         0         0         0         0         0         0         0         0
         0         0         0         0         0         0         0         0
         0         0         0         0         0         0         0         0
         0         0         0         0         0         0         0         0
         0         0         0         0         0         0         0         0
         0         0         0         0         0         0         0         0
         0         0         0         0         0         0         0         0
         0         0         0         0         0         0         0         0
         0         0         0         0         0         0         0         0
         0         0         0         0         0         0         0         0
         0         0         0         0         0         0         0         0
         0         0         0         0         0         0         0         0
         0         0         0         0         0         0         0         0
         0         0         0         0         0         0         0         0
         0         0         0         0         0         0         0         0
         0         0         0         0         0         0         0         0
         0         0         0         0         0         0         0         0
         0         0         0         0         0         0         0         0
         0         0         0         0         0         0         0         0
         0         0         0         0         0         0         0         0
         0         0         0         0         0         0         0         0
         0         0         0         0         0         0         0         0
         0         0         0         0         0         0         0         0
         0         0         0         0         0         0         0         0
         0         0         0         0         0         0         0         0
         0         0         0         0         0         0         0         0
         0         0         0         0         0         0         0         0
         0         0         0         0         0         0         0         0
         0         0         0         0         0         0         0         0
         0         0         0         0         0         0         0         0
         0         0         0         0         0         0         0         0
         0         0         0         0         0         0         0         0
         0         0         0         0         0         0         0         0
         0         0         0         0         0         0         0         0
         0         0         0         0         0         0         0         0
         0         0         0         0         0         0         0         0
         0         0         0         0         0         0         0         0
         0         0         0         0         0         0         0         0
         0         0         0         0         0         0         0         0
         0         0         0         0         0         0         0         0
         0         0         0         0         0         0         0         0
         0         0         0         0         0         0         0         0
         0         0         0         0         0         0         0         0
         0         0         0         0         0         0         0         0
         0         0         0         0         0         0         0         0
         0         0         0         0         0         0         0         0
         0         0         0         0         0         0         0         0
         0         0         0         0         0         0         0         0
         0         0         0         0         0         0         0         0
         0         0         0         0         0         0         0         0
         0         0         0         0         0         0         0         0
         0         0         0         0         0         0         0         0
         0         0         0         0         0         0         0         0
         0         0         0         0         0         0         0         0
         0         0         0         0         0         0         0         0
         0         0         0         0         0         0         0         0
         0         0         0         0         0         0         0         0
         0         0         0         0         0         0         0         0
         0         0         0         0         0         0         0         0
         0         0         0         0         0         0         0         0
         0         0         0         0         0         0         0         0
         0         0         0         0         0         0         0         0
         0         0         0         0         0         0         0         0
         0         0         0         0         0         0         0         0
         0         0         0         0         0         0         0         0
         0         0         0         0         0         0         0         0
         0         0         0         0         0         0         0         0
         0         0         0         0         0         0         0         0
         0         0         0         0         0         0         0         0
         0         0         0         0         0         0         0         0
         0         0         0         0         0         0         0         0
         0         0         0         0         0         0         0         0
         0         0         0         0         0         0         0         0
         0         0         0         0         0         0         0         0
         0         0         0         0         0         0         0         0
         0         0         0         0         0         0         0         0
         0         0         0         0         0         0         0         0
         0         0         0         0         0         0         0         0
         0         0         0         0         0         0         0         0
         0         0         0         0         0         0         0         0
         0         0         0         0         0         0         0         0
         0         0         0         0         0         0         0         0
         0         0         0         0         0         0         0         0
         0         0         0         0         0         0         0         0
         0         0         0         0         0         0         0         0
         0         0         0         0         0         0         0         0
         0         0         0         0         0         0         0         0
         0         0         0         0         0         0         0         0
         0         0         0         0         0         0         0         0
         0         0         0         0         0         0         0         0
         0         0         0         0         0         0         0         0
         0         0         0         0         0         0         0         0
         0         0         0         0         0         0         0         0
         0         0         0         0         0         0         0         0
         0         0         0         0         0         0         0         0
         0         0         0         0         0         0         0         0
         0         0         0         0         0         0         0         0
         0         0         0         0         0         0         0         0
         0         0         0         0         0         0         0         0
         0         0         0         0         0         0         0         0
         0         0         0         0         0         0         0         0
         0         0         0         0         0         0         0         0
         0         0         0         0         0         0         0         0
         0         0         0         0         0         0         0         0
         0         0         0         0         0         0         0         0
         0         0         0         0         0         0         0         0
         0         0         0         0         0         0         0         0
         0         0         0         0         0         0         0         0
         0         0         0         0         0         0         0         0
         0         0         0         0         0         0         0         0
         0         0         0         0         0         0         0         0
         0         0         0         0         0         0         0         0
         0         0         0         0         0         0         0         0
         0         0         0         0         0         0         0         0
         0         0         0         0         0         0         0         0
         0         0         0         0         0         0         0         0
         0         0         0         0         0         0         0         0
         0         0         0         0         0         0         0         0
         0         0         0         0         0         0         0         0
         0         0         0         0         0         0         0         0
         0         0         0         0         0         0         0         0
         0         0         0         0         0         0         0         0
         0         0         0         0         0         0         0         0
         0         0         0         0         0         0         0         0
         0         0         0         0         0         0         0         0
         0         0         0         0         0         0         0         0
         0         0         0         0         0         0         0         0
         0         0         0         0         0         0         0         0
         0         0         0         0         0         0         0         0
         0         0         0         0         0         0         0         0
         0         0         0         0         0         0         0         0
         0         0         0         0         0         0         0         0
         0         0         0         0         0         0         0         0
         0         0         0         0         0         0         0         0
         0         0         0         0         0         0         0         0
         0         0         0         0         0         0         0         0
         0         0         0         0         0         0         0         0
         0         0         0         0         0         0         0         0
         0         0         0         0         0         0         0         0
         0         0         0         0         0         0         0         0
         0         0         0         0         0         0         0         0
         0         0         0         0         0         0         0         0
         0         0         0         0         0         0         0         0
         0         0         0         0         0         0         0         0
         0         0         0         0         0         0         0         0
         0         0         0         0         0         0         0         0
         0         0         0         0         0         0         0         0
         0         0         0         0         0         0         0         0
         0         0         0         0         0         0         0         0
         0         0         0         0         0         0         0         0
         0         0         0         0         0         0         0         0
         0         0         0         0         0         0         0         0
         0         0         0         0         0         0         0         0
         0         0         0         0         0         0         0         0
         0         0         0         0         0         0         0         0
         0         0         0         0         0         0         0         0
         0         0         0         0         0         0         0         0
         0         0         0         0         0         0         0         0
         0         0         0         0         0         0         0         0
         0         0         0         0         0         0         0         0
         0         0         0         0         0         0         0         0
         0         0         0         0         0         0         0         0
         0         0         0         0         0         0         0         0
         0         0         0         0         0         0         0         0
         0         0         0         0         0         0         0         0
         0         0         0         0         0         0         0         0
         0         0         0         0         0         0         0         0
         0         0         0         0         0         0         0         0
         0         0         0         0         0         0         0         0
         0         0         0         0         0         0         0         0
         0         0         0         0         0         0         0         0
         0         0         0         0         0         0         0         0
         0         0         0         0         0         0         0         0
         0         0         0         0         0         0         0         0
         0         0         0         0         0         0         0         0
         0         0         0         0         0         0         0         0
         0         0         0         0         0         0         0         0
         0         0         0         0         0         0         0         0
         0         0         0         0         0         0         0         0
         0         0         0         0         0         0         0         0
         0         0         0         0         0         0         0         0
         0         0         0         0         0         0         0         0
         0         0         0         0         0         0         0         0
         0         0         0         0         0         0         0         0
         0         0         0         0         0         0         0         0
         0         0         0         0         0         0         0         0
         0         0         0         0         0         0         0         0
         0         0         0         0         0         0         0         0
         0         0         0         0         0         0         0         0
         0         0         0         0         0         0         0         0
         0         0         0         0         0         0         0         0
         0         0         0         0         0         0         0         0
         0         0         0         0         0         0         0         0
         0         0         0         0         0         0         0         0
         0         0         0         0         0         0         0         0
         0         0         0         0         0         0         0         0
         0         0         0         0         0         0         0         0
         0         0         0         0         0         0         0         0
         0         0         0         0         0         0         0         0
         0         0         0         0         0         0         0         0
         0         0         0         0         0         0         0         0
         0         0         0         0         0         0         0         0
         0         0         0         0         0         0         0         0
         0         0         0         0         0         0         0         0
         0         0         0         0         0         0         0         0
         0         0         0         0         0         0         0         0
         0         0         0         0         0         0         0         0
         0         0         0         0         0         0         0         0
         0         0         0         0         0         0         0         0
         0         0         0         0         0         0         0         0
         0         0         0         0         0         0         0         0
         0         0         0         0         0         0         0         0
         0         0         0         0         0         0         0         0
         0         0         0         0         0         0         0         0
         0         0         0         0         0         0         0         0
         0         0         0         0         0         0         0         0
         0         0         0         0         0         0         0         0
         0         0         0         0         0         0         0         0
         0         0         0         0         0         0         0         0
         0         0         0         0         0         0         0         0
         0         0         0         0         0         0         0         0
         0         0         0         0         0         0         0         0
         0         0         0         0         0         0         0         0
         0         0         0         0         0         0         0         0
         0         0         0         0         0         0         0         0
         0         0         0         0         0         0         0         0
         0         0         0         0         0         0         0         0
         0         0         0         0         0         0         0         0
         0         0         0         0         0         0         0         0
         0         0         0         0         0         0         0         0
         0         0         0         0         0         0         0         0
         0         0         0         0         0         0         0         0
         0         0         0         0         0         0         0         0
         0         0         0         0         0         0         0         0
         0         0         0         0         0         0         0         0
         0         0         0         0         0         0         0         0
         0         0         0         0         0         0         0         0
         0         0         0         0         0         0         0         0
         0         0         0         0         0         0         0         0
         0         0         0         0         0         0         0         0
         0         0         0         0         0         0         0         0
         0         0         0         0         0         0         0         0
         0         0         0         0         0         0         0         0
         0         0         0         0         0         0         0         0
         0         0         0         0         0         0         0         0
         0         0         0         0         0         0         0         0
         0         0         0         0         0         0         0         0
         0         0         0         0         0         0         0         0
         0         0         0         0         0         0         0         0
         0         0         0         0         0         0         0         0
         0         0         0         0         0         0         0         0
         0         0         0         0         0         0         0         0
         0         0         0         0         0         0         0         0
         0         0         0         0         0         0         0         0
         0         0         0         0         0         0         0         0
         0         0         0         0         0         0         0         0
         0         0         0         0         0         0         0         0
         0         0         0         0         0         0         0         0
         0         0         0         0         0         0         0         0
         0         0         0         0         0         0         0         0
         0         0         0         0         0         0         0         0
         0         0         0         0         0         0         0         0
         0         0         0         0         0         0         0         0
         0         0         0         0         0         0         0         0
         0         0         0         0         0         0         0         0
         0         0         0         0         0         0         0         0
         0         0         0         0         0         0         0         0
         0         0         0         0         0         0         0         0
         0         0         0         0         0         0         0         0
         0         0         0         0         0         0         0         0
         0         0         0         0         0         0         0         0
         0         0         0         0         0         0         0         0
         0         0         0         0         0         0         0         0
         0         0         0         0         0         0         0         0
         0         0         0         0         0         0         0         0
         0         0         0         0         0         0         0         0
         0         0         0         0         0         0         0         0
         0         0         0         0         0         0         0         0
         0         0         0         0         0         0         0         0
         0         0         0         0         0         0         0         0
         0         0         0         0         0         0         0         0
         0         0         0         0         0         0         0         0
         0         0         0         0         0         0         0         0
         0         0         0         0         0         0         0         0
         0         0         0         0         0         0         0         0
         0         0         0         0         0         0         0         0
         0         0         0         0         0         0         0         0
         0         0         0         0         0         0         0         0
         0         0         0         0         0         0         0         0
         0         0         0         0         0         0         0         0
         0         0         0         0         0         0         0         0
         0         0         0         0         0         0         0         0
         0         0         0         0         0         0         0         0
         0         0         0         0         0         0         0         0
         0         0         0         0         0         0         0         0
         0         0         0         0         0         0         0         0
         0         0         0         0         0         0         0         0
         0         0         0         0         0         0         0         0
         0         0         0         0         0         0         0         0
         0         0         0         0         0         0         0         0
         0         0         0         0         0         0         0         0
         0         0         0         0         0         0         0         0
         0         0         0         0         0         0         0         0
         0         0         0         0         0         0         0         0
         0         0         0         0         0         0         0         0
         0         0         0         0         0         0         0         0
         0         0         0         0         0         0         0         0
         0         0         0         0         0         0         0         0
         0         0         0         0         0         0         0         0
         0         0         0         0         0         0         0         0
         0         0         0         0         0         0         0         0
         0         0         0         0         0         0         0         0
         0         0         0         0         0         0         0         0
         0         0         0         0         0         0         0         0
         0         0         0         0         0         0         0         0
         0         0         0         0         0         0         0         0
         0         0         0         0         0         0         0         0
         0         0         0         0         0         0         0         0
         0         0         0         0         0         0         0         0
         0         0         0         0         0         0         0         0
         0         0         0         0         0         0         0         0
         0         0         0         0         0         0         0         0
         0         0         0         0         0         0         0         0
         0         0         0         0         0         0         0         0
         0         0         0         0         0         0         0         0
         0         0         0         0         0         0         0         0
         0         0         0         0         0         0         0         0
         0         0         0         0         0         0         0         0
         0         0         0         0         0         0         0         0
         0         0         0         0         0         0         0         0
         0         0         0         0         0         0         0         0
         0         0         0         0         0         0         0         0
         0         0         0         0         0         0         0         0
         0         0         0         0         0         0         0         0
         0         0         0         0         0         0         0         0
         0         0         0         0         0         0         0         0
         0         0         0         0         0         0         0         0
         0         0         0         0         0         0         0         0
         0         0         0         0         0         0         0         0
         0         0         0         0         0         0         0         0
         0         0         0         0         0         0         0         0
         0         0         0         0         0         0         0         0
         0         0         0         0         0         0         0         0
         0         0         0         0         0         0         0         0
         0         0         0         0         0         0         0         0
         0         0         0         0         0         0         0         0
         0         0         0         0         0         0         0         0
         0         0         0         0         0         0         0         0
         0         0         0         0         0         0         0         0
         0         0         0         0         0         0         0         0
         0         0         0         0         0         0         0         0
         0         0         0         0         0         0         0         0
         0         0         0         0         0         0         0         0
         0         0         0         0         0         0         0         0
         0         0         0         0         0         0         0         0
         0         0         0         0         0         0         0         0
         0         0         0         0         0         0         0         0
         0         0         0         0         0         0         0         0
         0         0         0         0         0         0         0         0
         0         0         0         0         0         0         0         0
         0         0         0         0         0         0         0         0
         0         0         0         0         0         0         0         0
         0         0         0         0         0         0         0         0
         0         0         0         0         0         0         0         0
         0         0         0         0         0         0         0         0
         0         0         0         0         0         0         0         0
         0         0         0         0         0         0         0         0
         0         0         0         0         0         0         0         0
         0         0         0         0         0         0         0         0
         0         0         0         0         0         0         0         0
         0         0         0         0         0         0         0         0
         0         0         0         0         0         0         0         0
         0         0         0         0         0         0         0         0
         0         0         0         0         0         0         0         0
         0         0         0         0         0         0         0         0
         0         0         0         0         0         0         0         0
         0         0         0         0         0         0         0         0
         0         0         0         0         0         0         0         0
         0         0         0         0         0         0         0         0
         0         0         0         0         0         0         0         0
         0         0         0         0         0         0         0         0
         0         0         0         0         0         0         0         0
         0         0         0         0         0         0         0         0
         0         0         0         0         0         0         0         0
         0         0         0         0         0         0         0         0
         0         0         0         0         0         0         0         0
         0         0         0         0         0         0         0         0
         0         0         0         0         0         0         0         0
         0         0         0         0         0         0         0         0
         0         0         0         0         0         0         0         0
         0         0         0         0         0         0         0         0
         0         0         0         0         0         0         0         0
         0         0         0         0         0         0         0         0
         0         0         0         0         0         0         0         0
         0         0         0         0         0         0         0         0
         0         0         0         0         0         0         0         0
         0         0         0         0         0         0         0         0
         0         0         0         0         0         0         0         0
         0         0         0         0         0         0         0         0
         0         0         0         0         0         0         0         0
         0         0         0         0         0         0         0         0
         0         0         0         0         0         0         0         0
         0         0         0         0         0         0         0         0
         0         0         0         0         0         0         0         0
         0         0         0         0         0         0         0         0
         0         0         0         0         0         0         0         0
         0         0         0         0         0         0         0         0
         0         0         0         0         0         0         0         0
         0         0         0         0         0         0         0         0
         0         0         0         0         0         0         0         0
         0         0         0         0         0         0         0         0
         0         0         0         0         0         0         0         0
         0         0         0         0         0         0         0         0
         0         0         0         0         0         0         0         0
         0         0         0         0         0         0         0         0
         0         0         0         0         0         0         0         0
         0         0         0         0         0         0         0         0
         0         0         0         0         0         0         0         0
         0         0         0         0         0         0         0         0
         0         0         0         0         0         0         0         0
         0         0         0         0         0         0         0         0
         0         0         0         0         0         0         0         0
         0         0         0         0         0         0         0         0
         0         0         0         0         0         0         0         0
         0         0         0         0         0         0         0         0
         0         0         0         0         0         0         0         0
         0         0         0         0         0         0         0         0
         0         0         0         0         0         0         0         0
         0         0         0         0         0         0         0         0
         0         0         0         0         0         0         0         0
         0         0         0         0         0         0         0         0
         0         0         0         0         0         0         0         0
         0         0         0         0         0         0         0         0
         0         0         0         0         0         0         0         0
         0         0         0         0         0         0         0         0
         0         0         0         0         0         0         0         0
         0         0         0         0         0         0         0         0
         0         0         0         0         0         0         0         0
         0         0         0         0         0         0         0         0
         0         0         0         0         0         0         0         0
         0         0         0         0         0         0         0         0
         0         0         0         0         0         0         0         0
         0         0         0         0         0         0         0         0
         0         0         0         0         0         0         0         0
         0         0         0         0         0         0         0         0
         0         0         0         0         0         0         0         0
         0         0         0         0         0         0         0         0
         0         0         0         0         0         0         0         0
         0         0         0         0         0         0         0         0
         0         0         0         0         0         0         0         0
         0         0         0         0         0         0         0         0
         0         0         0         0         0         0         0         0
         0         0         0         0         0         0         0         0
         0         0         0         0         0         0         0         0
         0         0         0         0         0         0         0         0
         0         0         0         0         0         0         0         0
         0         0         0         0         0         0         0         0
         0         0         0         0         0         0         0         0
         0         0         0         0         0         0         0         0
         0         0         0         0         0         0         0         0
         0         0         0         0         0         0         0         0
         0         0         0         0         0         0         0         0
         0         0         0         0         0         0         0         0
         0         0         0         0         0         0         0         0
         0         0         0         0         0         0         0         0
         0         0         0         0         0         0         0         0
         0         0         0         0         0         0         0         0
         0         0         0         0         0         0         0         0
         0         0         0         0         0         0         0         0
         0         0         0         0         0         0         0         0
         0         0         0         0         0         0         0         0
         0         0         0         0         0         0         0         0
         0         0         0         0         0         0         0         0
         0         0         0         0         0         0         0         0
         0         0         0         0         0         0         0         0
         0         0         0         0         0         0         0         0
         0         0         0         0         0         0         0         0
         0         0         0         0         0         0         0         0
         0         0         0         0         0         0         0         0
         0         0         0         0         0         0         0         0
         0         0         0         0         0         0         0         0
         0         0         0         0         0         0         0         0
         0         0         0         0         0         0         0         0
         0         0         0         0         0         0         0         0
         0         0         0         0         0         0         0         0
         0         0         0         0         0         0         0         0
         0         0         0         0         0         0         0         0
         0         0         0         0         0         0         0         0
         0         0         0         0         0         0         0         0
         0         0         0         0         0         0         0         0
         0         0         0         0         0         0         0         0
         0         0         0         0         0         0         0         0
         0         0         0         0         0         0         0         0
         0         0         0         0         0         0         0         0
         0         0         0         0         0         0         0         0
         0         0         0         0         0         0         0         0
         0         0         0         0         0         0         0         0
         0         0         0         0         0         0         0         0
         0         0         0         0         0         0         0         0
         0         0         0         0         0         0         0         0
         0         0         0         0         0         0         0         0
         0         0         0         0         0         0         0         0
         0         0         0         0         0         0         0         0
         0         0         0         0         0         0         0         0
         0         0         0         0         0         0         0         0
         0         0         0         0         0         0         0         0
         0         0         0         0         0         0         0         0
         0         0         0         0         0         0         0         0
         0         0         0         0         0         0         0         0
         0         0         0         0         0         0         0         0
         0         0         0         0         0         0         0         0
         0         0         0         0         0         0         0         0
         0         0         0         0         0         0         0         0
         0         0         0         0         0         0         0         0
         0         0         0         0         0         0         0         0
         0         0         0         0         0         0         0         0
         0         0         0         0         0         0         0         0
         0         0         0         0         0         0         0         0
         0         0         0         0         0         0         0         0
         0         0         0         0         0         0         0         0
         0         0         0         0         0         0         0         0
         0         0         0         0         0         0         0         0
         0         0         0         0         0         0         0         0
         0         0         0         0         0         0         0         0
         0         0         0         0         0         0         0         0
         0         0         0         0         0         0         0         0
         0         0         0         0         0         0         0         0
         0         0         0         0         0         0         0         0
         0         0         0         0         0         0         0         0
         0         0         0         0         0         0         0         0
         0         0         0         0         0         0         0         0
         0         0         0         0         0         0         0         0
         0         0         0         0         0         0         0         0
         0         0         0         0         0         0         0         0
         0         0         0         0         0         0         0         0
         0         0         0         0         0         0         0         0
         0         0         0         0         0         0         0         0
         0         0         0         0         0         0         0         0
         0         0         0         0         0         0         0         0
         0         0         0         0         0         0         0         0
         0         0         0         0         0         0         0         0
         0         0         0         0         0         0         0         0
         0         0         0         0         0         0         0         0
         0         0         0         0         0         0         0         0
         0         0         0         0         0         0         0         0
         0         0         0         0         0         0         0         0
         0         0         0         0         0         0         0         0
         0         0         0         0         0         0         0         0
         0         0         0         0         0         0         0         0
         0         0         0         0         0         0         0         0
         0         0         0         0         0         0         0         0
         0         0         0         0         0         0         0         0
         0         0         0         0         0         0         0         0
         0         0         0         0         0         0         0         0
         0         0         0         0         0         0         0         0
         0         0         0         0         0         0         0         0
         0         0         0         0         0         0         0         0
         0         0         0         0         0         0         0         0
         0         0         0         0         0         0         0         0
         0         0         0         0         0         0         0         0
         0         0         0         0         0         0         0         0
         0         0         0         0         0         0         0         0
         0         0         0         0         0         0         0         0
         0         0         0         0         0         0         0         0
         0         0         0         0         0         0         0         0
         0         0         0         0         0         0         0         0
         0         0         0         0         0         0         0         0
         0         0         0         0         0         0         0         0
         0         0         0         0         0         0         0         0
         0         0         0         0         0         0         0         0
         0         0         0         0         0         0         0         0
         0         0         0         0         0         0         0         0
         0         0         0         0         0         0         0         0
         0         0         0         0         0         0         0         0
         0         0         0         0         0         0         0         0
         0         0         0         0         0         0         0         0
         0         0         0         0         0         0         0         0
         0         0         0         0         0         0         0         0
         0         0         0         0         0         0         0         0
         0         0         0         0         0         0         0         0
         0         0         0         0         0         0         0         0
         0         0         0         0         0         0         0         0
         0         0         0         0         0         0         0         0
         0         0         0         0         0         0         0         0
         0         0         0         0         0         0         0         0
         0         0         0         0         0         0         0         0
         0         0         0         0         0         0         0         0
         0         0         0         0         0         0         0         0
         0         0         0         0         0         0         0         0
         0         0         0         0         0         0         0         0
         0         0         0         0         0         0         0         0
         0         0         0         0         0         0         0         0
         0         0         0         0         0         0         0         0
         0         0         0         0         0         0         0         0
         0         0         0         0         0         0         0         0
         0         0         0         0         0         0         0         0
         0         0         0         0         0         0         0         0
         0         0         0         0         0         0         0         0
         0         0         0         0         0         0         0         0
         0         0         0         0         0         0         0         0
         0         0         0         0         0         0         0         0
         0         0         0         0         0         0         0         0
         0         0         0         0         0         0         0         0
         0         0         0         0         0         0         0         0
         0         0         0         0         0         0         0         0
         0         0         0         0         0         0         0         0
         0         0         0         0         0         0         0         0
         0         0         0         0         0         0         0         0
         0         0         0         0         0         0         0         0
         0         0         0         0         0         0         0         0
         0         0         0         0         0         0         0         0
         0         0         0         0         0         0         0         0
         0         0         0         0         0         0         0         0
         0         0         0         0         0         0         0         0
         0         0         0         0         0         0         0         0
         0         0         0         0         0         0         0         0
         0         0         0         0         0         0         0         0
         0         0         0         0         0         0         0         0
         0         0         0         0         0         0         0         0
         0         0         0         0         0         0         0         0
         0         0         0         0         0         0         0         0
         0         0         0         0         0         0         0         0
         0         0         0         0         0         0         0         0
         0         0         0         0         0         0         0         0
         0         0         0         0         0         0         0         0
         0         0         0         0         0         0         0         0
         0         0         0         0         0         0         0         0
         0         0         0         0         0         0         0         0
         0         0         0         0         0         0         0         0
         0         0         0         0         0         0         0         0
         0         0         0         0         0         0         0         0
         0         0         0         0         0         0         0         0
         0         0         0         0         0         0         0         0
         0         0         0         0         0         0         0         0
         0         0         0         0         0         0         0         0
         0         0         0         0         0         0         0         0
         0         0         0         0         0         0         0         0
         0         0         0         0         0         0         0         0
         0         0         0         0         0         0         0         0
         0         0         0         0         0         0         0         0
         0         0         0         0         0         0         0         0
         0         0         0         0         0         0         0         0
         0         0         0         0         0         0         0         0
         0         0         0         0         0         0         0         0
         0         0         0         0         0         0         0         0
         0         0         0         0         0         0         0         0
         0         0         0         0         0         0         0         0
         0         0         0         0         0         0         0         0
         0         0         0         0         0         0         0         0
         0         0         0         0         0         0         0         0
         0         0         0         0         0         0         0         0
         0         0         0         0         0         0         0         0
         0         0         0         0         0         0         0         0
         0         0         0         0         0         0         0         0
         0         0         0         0         0         0         0         0
         0         0         0         0         0         0         0         0
         0         0         0         0         0         0         0         0
         0         0         0         0         0         0         0         0
         0         0         0         0         0         0         0         0
         0         0         0         0         0         0         0         0
         0         0         0         0         0         0         0         0
         0         0         0         0         0         0         0         0
         0         0         0         0         0         0         0         0
         0         0         0         0         0         0         0         0
         0         0         0         0         0         0         0         0
         0         0         0         0         0         0         0         0
         0         0         0         0         0         0         0         0
         0         0         0         0         0         0         0         0
         0         0         0         0         0         0         0         0
         0         0         0         0         0         0         0         0
         0         0         0         0         0         0         0         0
         0         0         0         0         0         0         0         0
         0         0         0         0         0         0         0         0
         0         0         0         0         0         0         0         0
         0         0         0         0         0         0         0         0
         0         0         0         0         0         0         0         0
         0         0         0         0         0         0         0         0
         0         0         0         0         0         0         0         0
         0         0         0         0         0         0         0         0
         0         0         0         0         0         0         0         0
         0         0         0         0         0         0         0         0
         0         0         0         0         0         0         0         0
         0         0         0         0         0         0         0         0
         0         0         0         0         0         0         0         0
         0         0         0         0         0         0         0         0
         0         0         0         0         0         0         0         0
         0         0         0         0         0         0         0         0
         0         0         0         0         0         0         0         0
         0         0         0         0         0         0         0         0
         0         0         0         0         0         0         0         0
         0         0         0         0         0         0         0         0
         0         0         0         0         0         0         0         0
         0         0         0         0         0         0         0         0
         0         0         0         0         0         0         0         0
         0         0         0         0         0         0         0         0
         0         0         0         0         0         0         0         0
         0         0         0         0         0         0         0         0
         0         0         0         0         0         0         0         0
         0         0         0         0         0         0         0         0
         0         0         0         0         0         0         0         0
         0         0         0         0         0         0         0         0
         0         0         0         0         0         0         0         0
         0         0         0         0         0         0         0         0
         0         0         0         0         0         0         0         0
         0         0         0         0         0         0         0         0
         0         0         0         0         0         0         0         0
         0         0         0         0         0         0         0         0
         0         0         0         0         0         0         0         0
         0         0         0         0         0         0         0         0
         0         0         0         0         0         0         0         0
         0         0         0         0         0         0         0         0
         0         0         0         0         0         0         0         0
         0         0         0         0         0         0         0         0
         0         0         0         0         0         0         0         0
         0         0         0         0         0         0         0         0
         0         0         0         0         0         0         0         0
         0         0         0         0         0         0         0         0
         0         0         0         0         0         0         0         0
         0         0         0         0         0         0         0         0
         0         0         0         0         0         0         0         0
         0         0         0         0         0         0         0         0
         0         0         0         0         0         0         0         0
         0         0         0         0         0         0         0         0
         0         0         0         0         0         0         0         0
         0         0         0         0         0         0         0         0
         0         0         0         0         0         0         0         0
         0         0         0         0         0         0         0         0
         0         0         0         0         0         0         0         0
         0         0         0         0         0         0         0         0
         0         0         0         0         0         0         0         0
         0         0         0         0         0         0         0         0
         0         0         0         0         0         0         0         0
         0         0         0         0         0         0         0         0
         0         0         0         0         0         0         0         0
         0         0         0         0         0         0         0         0
         0         0         0         0         0         0         0         0
         0         0         0         0         0         0         0         0
         0         0         0         0         0         0         0         0
         0         0         0         0         0         0         0         0
         0         0         0         0         0         0         0         0
         0         0         0         0         0         0         0         0
         0         0         0         0         0         0         0         0
         0         0         0         0         0         0         0         0
         0         0         0         0         0         0         0         0
         0         0         0         0         0         0         0         0
         0         0         0         0         0         0         0         0
         0         0         0         0         0         0         0         0
         0         0         0         0         0         0         0         0
         0         0         0         0         0         0         0         0
         0         0         0         0         0         0         0         0
         0         0         0         0         0         0         0         0
         0         0         0         0         0         0         0         0
         0         0         0         0         0         0         0         0
         0         0         0         0         0         0         0         0
         0         0         0         0         0         0         0         0
         0         0         0         0         0         0         0         0
         0         0         0         0         0         0         0         0
         0         0         0         0         0         0         0         0
         0         0         0         0         0         0         0         0
         0         0         0         0         0         0         0         0
         0         0         0         0         0         0         0         0
         0         0         0         0         0         0         0         0
         0         0         0         0         0         0         0         0
         0         0         0         0         0         0         0         0
         0         0         0         0         0         0         0         0
         0         0         0         0         0         0         0         0
         0         0         0         0         0         0         0         0
         0         0         0         0         0         0         0         0
         0         0         0         0         0         0         0         0
         0         0         0         0         0         0         0         0
         0         0         0         0         0         0         0         0
         0         0         0         0         0         0         0         0
         0         0         0         0         0         0         0         0
         0         0         0         0         0         0         0         0
         0         0         0         0         0         0         0         0
         0         0         0         0         0         0         0         0
         0         0         0         0         0         0         0         0
         0         0         0         0         0         0         0         0
         0         0         0         0         0         0         0         0
         0         0         0         0         0         0         0         0
         0         0         0         0         0         0         0         0
         0         0         0         0         0         0         0         0
         0         0         0         0         0         0         0         0
         0         0         0         0         0         0         0         0
         0         0         0         0         0         0         0         0
         0         0         0         0         0         0         0         0
         0         0         0         0         0         0         0         0
         0         0         0         0         0         0         0         0
         0         0         0         0         0         0         0         0
         0         0         0         0         0         0         0         0
         0         0         0         0         0         0         0         0
         0         0         0         0         0         0         0         0
         0         0         0         0         0         0         0         0
         0         0         0         0         0         0         0         0
         0         0         0         0         0         0         0         0
         0         0         0         0         0         0         0         0
         0         0         0         0         0         0         0         0
         0         0         0         0         0         0         0         0
         0         0         0         0         0         0         0         0
         0         0         0         0         0         0         0         0
         0         0         0         0         0         0         0         0
         0         0         0         0         0         0         0         0
         0         0         0         0         0         0         0         0
         0         0         0         0         0         0         0         0
         0         0         0         0         0         0         0         0
         0         0         0         0         0         0         0         0
         0         0         0         0         0         0         0         0
         0         0         0         0         0         0         0         0
         0         0         0         0         0         0         0         0
         0         0         0         0         0         0         0         0
         0         0         0         0         0         0         0         0
         0         0         0         0         0         0         0         0
         0         0         0         0         0         0         0         0
         0         0         0         0         0         0         0         0
         0         0         0         0         0         0         0         0
         0         0         0         0         0         0         0         0
         0         0         0         0         0         0         0         0
         0         0         0         0         0         0         0         0
         0         0         0         0         0         0         0         0
         0         0         0         0         0         0         0         0
         0         0         0         0         0         0         0         0
         0         0         0         0         0         0         0         0
         0         0         0         0         0         0         0         0
         0         0         0         0         0         0         0         0
         0         0         0         0         0         0         0         0
         0         0         0         0         0         0         0         0
         0         0         0         0         0         0         0         0
         0         0         0         0         0         0         0         0
         0         0         0         0         0         0         0         0
         0         0         0         0         0         0         0         0
         0         0         0         0         0         0         0         0
         0         0         0         0         0         0         0         0
         0         0         0         0         0         0         0         0
         0         0         0         0         0         0         0         0
         0         0         0         0         0         0         0         0
         0         0         0         0         0         0         0         0
         0         0         0         0         0         0         0         0
         0         0         0         0         0         0         0         0
         0         0         0         0         0         0         0         0
         0         0         0         0         0         0         0         0
         0         0         0         0         0         0         0         0
         0         0         0         0         0         0         0         0
         0         0         0         0         0         0         0         0
         0         0         0         0         0         0         0         0
         0         0         0         0         0         0         0         0
         0         0         0         0         0         0         0         0
         0         0         0         0         0         0         0         0
         0         0         0         0         0         0         0         0
         0         0         0         0         0         0         0         0
         0         0         0         0         0         0         0         0
         0         0         0         0         0         0         0         0
         0         0         0         0         0         0         0         0
         0         0         0         0         0         0         0         0
         0         0         0         0         0         0         0         0
         0         0         0         0         0         0         0         0
         0         0         0         0         0         0         0         0
         0         0         0         0         0         0         0         0
         0         0         0         0         0         0         0         0
         0         0         0         0         0         0         0         0
         0         0         0         0         0         0         0         0
         0         0         0         0         0         0         0         0
         0         0         0         0         0         0         0         0
         0         0         0         0         0         0         0         0
         0         0         0         0         0         0         0         0
         0         0         0         0         0         0         0         0
         0         0         0         0         0         0         0         0
         0         0         0         0         0         0         0         0
         0         0         0         0         0         0         0         0
         0         0         0         0         0         0         0         0
         0         0         0         0         0         0         0         0
         0         0         0         0         0         0         0         0
         0         0         0         0         0         0         0         0
         0         0         0         0         0         0         0         0
         0         0         0         0         0         0         0         0
         0         0         0         0         0         0         0         0
         0         0         0         0         0         0         0         0
         0         0         0         0         0         0         0         0
         0         0         0         0         0         0         0         0
         0         0         0         0         0         0         0         0
         0         0         0         0         0         0         0         0
         0         0         0         0         0         0         0         0
         0         0         0         0         0         0         0         0
         0         0         0         0         0         0         0         0
         0         0         0         0         0         0         0         0
         0         0         0         0         0         0         0         0
         0         0         0         0         0         0         0         0
         0         0         0         0         0         0         0         0
         0         0         0         0         0         0         0         0
         0         0         0         0         0         0         0         0
         0         0         0         0         0         0         0         0
         0         0         0         0         0         0         0         0
         0         0         0         0         0         0         0         0
         0         0         0         0         0         0         0         0
         0         0         0         0         0         0         0         0
         0         0         0         0         0         0         0         0
         0         0         0         0         0         0         0         0
         0         0         0         0         0         0         0         0
         0         0         0         0         0         0         0         0
         0         0         0         0         0         0         0         0
         0         0         0         0         0         0         0         0
         0         0         0         0         0         0         0         0
         0         0         0         0         0         0         0         0
         0         0         0         0         0         0         0         0
         0         0         0         0         0         0         0         0
         0         0         0         0         0         0         0         0
         0         0         0         0         0         0         0         0
         0         0         0         0         0         0         0         0
         0         0         0         0         0         0         0         0
         0         0         0         0         0         0         0         0
         0         0         0         0         0         0         0         0
         0         0         0         0         0         0         0         0
         0         0         0         0         0         0         0         0
         0         0         0         0         0         0         0         0
         0         0         0         0         0         0         0         0
         0         0         0         0         0         0         0         0
         0         0         0         0         0         0         0         0
         0         0         0         0         0         0         0         0
         0         0         0         0         0         0         0         0
         0         0         0         0         0         0         0         0
         0         0         0         0         0         0         0         0
         0         0         0         0         0         0         0         0
         0         0         0         0         0         0         0         0
         0         0         0         0         0         0         0         0
         0         0         0         0         0         0         0         0
         0         0         0         0         0         0         0         0
         0         0         0         0         0         0         0         0
         0         0         0         0         0         0         0         0
         0         0         0         0         0         0         0         0
         0         0         0         0         0         0         0         0
         0         0         0         0         0         0         0         0
         0         0         0         0         0         0         0         0
         0         0         0         0         0         0         0         0
         0         0         0         0         0         0         0         0
         0         0         0         0         0         0         0         0
         0         0         0         0         0         0         0         0
         0         0         0         0         0         0         0         0
         0         0         0         0         0         0         0         0
         0         0         0         0         0         0         0         0
         0         0         0         0         0         0         0         0
         0         0         0         0         0         0         0         0
         0         0         0         0         0         0         0         0
         0         0         0         0         0         0         0         0
         0         0         0         0         0         0         0         0
         0         0         0         0         0         0         0         0
         0         0         0         0         0         0         0         0
         0         0         0         0         0         0         0         0
         0         0         0         0         0         0         0         0
         0         0         0         0         0         0         0         0
         0         0         0         0         0         0         0         0
         0         0         0         0         0         0         0         0
         0         0         0         0         0         0         0         0
         0         0         0         0         0         0         0         0
         0         0         0         0         0         0         0         0
         0         0         0         0         0         0         0         0
         0         0         0         0         0         0         0         0
         0         0         0         0         0         0         0         0
         0         0         0         0         0         0         0         0
         0         0         0         0         0         0         0         0
         0         0         0         0         0         0         0         0
         0         0         0         0         0         0         0         0
         0         0         0         0         0         0         0         0
         0         0         0         0         0         0         0         0
         0         0         0         0         0         0         0         0
         0         0         0         0         0         0         0         0
         0         0         0         0         0         0         0         0
         0         0         0         0         0         0         0         0
         0         0         0         0         0         0         0         0
         0         0         0         0         0         0         0         0
         0         0         0         0         0         0         0         0
         0         0         0         0         0         0         0         0
         0         0         0         0         0         0         0         0
         0         0         0         0         0         0         0         0
         0         0         0         0         0         0         0         0
         0         0         0         0         0         0         0         0
         0         0         0         0         0         0         0         0
         0         0         0         0         0         0         0         0
         0         0         0         0         0         0         0         0
         0         0         0         0         0         0         0         0
         0         0         0         0         0         0         0         0
         0         0         0         0         0         0         0         0
         0         0         0         0         0         0         0         0
         0         0         0         0         0         0         0         0
         0         0         0         0         0         0         0         0
         0         0         0         0         0         0         0         0
         0         0         0         0         0         0         0         0
         0         0         0         0         0         0         0         0
         0         0         0         0         0         0         0         0
         0         0         0         0         0         0         0         0
         0         0         0         0         0         0         0         0
         0         0         0         0         0         0         0         0
         0         0         0         0         0         0         0         0
         0         0         0         0         0         0         0         0
         0         0         0         0         0         0         0         0
         0         0         0         0         0         0         0         0
         0         0         0         0         0         0         0         0
         0         0         0         0         0         0         0         0
         0         0         0         0         0         0         0         0
         0         0         0         0         0         0         0         0
         0         0         0         0         0         0         0         0
         0         0         0         0         0         0         0         0
         0         0         0         0         0         0         0         0
         0         0         0         0         0         0         0         0
         0         0         0         0         0         0         0         0
         0         0         0         0         0         0         0         0
         0         0         0         0         0         0         0         0
         0         0         0         0         0         0         0         0
         0         0         0         0         0         0         0         0
         0         0         0         0         0         0         0         0
         0         0         0         0         0         0         0         0
         0         0         0         0         0         0         0         0
         0         0         0         0         0         0         0         0
         0         0         0         0         0         0         0         0
         0         0         0         0         0         0         0         0
         0         0         0         0         0         0         0         0
         0         0         0         0         0         0         0         0
         0         0         0         0         0         0         0         0
         0         0         0         0         0         0         0         0
         0         0         0         0         0         0         0         0
         0         0         0         0         0         0         0         0
         0         0         0         0         0         0         0         0
         0         0         0         0         0         0         0         0
         0         0         0         0         0         0         0         0
         0         0         0         0         0         0         0         0
         0         0         0         0         0         0         0         0
         0         0         0         0         0         0         0         0
         0         0         0         0         0         0         0         0
         0         0         0         0         0         0         0         0
         0         0         0         0         0         0         0         0
         0         0         0         0         0         0         0         0
         0         0         0         0         0         0         0         0
         0         0         0         0         0         0         0         0
         0         0         0         0         0         0         0         0
         0         0         0         0         0         0         0         0
         0         0         0         0         0         0         0         0
         0         0         0         0         0         0         0         0
         0         0         0         0         0         0         0         0
         0         0         0         0         0         0         0         0
         0         0         0         0         0         0         0         0
         0         0         0         0         0         0         0         0
         0         0         0         0         0         0         0         0
         0         0         0         0         0         0         0         0
         0         0         0         0         0         0         0         0
         0         0         0         0         0         0         0         0
         0         0         0         0         0         0         0         0
         0         0         0         0         0         0         0         0
         0         0         0         0         0         0         0         0
         0         0         0         0         0         0         0         0
         0         0         0         0         0         0         0         0
         0         0         0         0         0         0         0         0
         0         0         0         0         0         0         0         0
         0         0         0         0         0         0         0         0
         0         0         0         0         0         0         0         0
         0         0         0         0         0         0         0         0
         0         0         0         0         0         0         0         0
         0         0         0         0         0         0         0         0
         0         0         0         0         0         0         0         0
         0         0         0         0         0         0         0         0
         0         0         0         0         0         0         0         0
         0         0         0         0         0         0         0         0
         0         0         0         0         0         0         0         0
         0         0         0         0         0         0         0         0
         0         0         0         0         0         0         0         0
         0         0         0         0         0         0         0         0
         0         0         0         0         0         0         0         0
         0         0         0         0         0         0         0         0
         0         0         0         0         0         0         0         0
         0         0         0         0         0         0         0         0
         0         0         0         0         0         0         0         0
         0         0         0         0         0         0         0         0
         0         0         0         0         0         0         0         0
         0         0         0         0         0         0         0         0
         0         0         0         0         0         0         0         0
         0         0         0         0         0         0         0         0
         0         0         0         0         0         0         0         0
         0         0         0         0         0         0         0         0
         0         0         0         0         0         0         0         0
         0         0         0         0         0         0         0         0
         0         0         0         0         0         0         0         0
         0         0         0         0         0         0         0         0
         0         0         0         0         0         0         0         0
         0         0         0         0         0         0         0         0
         0         0         0         0         0         0         0         0
         0         0         0         0         0         0         0         0
         0         0         0         0         0         0         0         0
         0         0         0         0         0         0         0         0
         0         0         0         0         0         0         0         0
         0         0         0         0         0         0         0         0
         0         0         0         0         0         0         0         0
         0         0         0         0         0         0         0         0
         0         0         0         0         0         0         0         0
         0         0         0         0         0         0         0         0
         0         0         0         0         0         0         0         0
         0         0         0         0         0         0         0         0
         0         0         0         0         0         0         0         0
         0         0         0         0         0         0         0         0
         0         0         0         0         0         0         0         0
         0         0         0         0         0         0         0         0
         0         0         0         0         0         0         0         0
         0         0         0         0         0         0         0         0
         0         0         0         0         0         0         0         0
         0         0         0         0         0         0         0         0
         0         0         0         0         0         0         0         0
         0         0         0         0         0         0         0         0
         0         0         0         0         0         0         0         0
         0         0         0         0         0         0         0         0
         0         0         0         0         0         0         0         0
         0         0         0         0         0         0         0         0
         0         0         0         0         0         0         0         0
         0         0         0         0         0         0         0         0
         0         0         0         0         0         0         0         0
         0         0         0         0         0         0         0         0
         0         0         0         0         0         0         0         0
         0         0         0         0         0         0         0         0
         0         0         0         0         0         0         0         0
         0         0         0         0         0         0         0         0
         0         0         0         0         0         0         0         0
         0         0         0         0         0         0         0         0
         0         0         0         0         0         0         0         0
         0         0         0         0         0         0         0         0
         0         0         0         0         0         0         0         0
         0         0         0         0         0         0         0         0
         0         0         0         0         0         0         0         0
         0         0         0         0         0         0         0         0
         0         0         0         0         0         0         0         0
         0         0         0         0         0         0         0         0
         0         0         0         0         0         0         0         0
         0         0         0         0         0         0         0         0
         0         0         0         0         0         0         0         0
         0         0         0         0         0         0         0         0
         0         0         0         0         0         0         0         0
         0         0         0         0         0         0         0         0
         0         0         0         0         0         0         0         0
         0         0         0         0         0         0         0         0
         0         0         0         0         0         0         0         0
         0         0         0         0         0         0         0         0
         0         0         0         0         0         0         0         0
         0         0         0         0         0         0         0         0
         0         0         0         0         0         0         0         0
         0         0         0         0         0         0         0         0
         0         0         0         0         0         0         0         0
         0         0         0         0         0         0         0         0
         0         0         0         0         0         0         0         0
         0         0         0         0         0         0         0         0
         0         0         0         0         0         0         0         0
         0         0         0         0         0         0         0         0
         0         0         0         0         0         0         0         0
         0         0         0         0         0         0         0         0
         0         0         0         0         0         0         0         0
         0         0         0         0         0         0         0         0
         0         0         0         0         0         0         0         0
         0         0         0         0         0         0         0         0
         0         0         0         0         0         0         0         0
         0         0         0         0         0         0         0         0
         0         0         0         0         0         0         0         0
         0         0         0         0         0         0         0         0
         0         0         0         0         0         0         0         0
         0         0         0         0         0         0         0         0
         0         0         0         0         0         0         0         0
         0         0         0         0         0         0         0         0
         0         0         0         0         0         0         0         0
         0         0         0         0         0         0         0         0
         0         0         0         0         0         0         0         0
         0         0         0         0         0         0         0         0
         0         0         0         0         0         0         0         0
         0         0         0         0         0         0         0         0
         0         0         0         0         0         0         0         0
         0         0         0         0         0         0         0         0
         0         0         0         0         0         0         0         0
         0         0         0         0         0         0         0         0
         0         0         0         0         0         0         0         0
         0         0         0         0         0         0         0         0
         0         0         0         0         0         0         0         0
         0         0         0         0         0         0         0         0
         0         0         0         0         0         0         0         0
         0         0         0         0         0         0         0         0
         0         0         0         0         0         0         0         0
         0         0         0         0         0         0         0         0
         0         0         0         0         0         0         0         0
         0         0         0         0         0         0         0         0
         0         0         0         0         0         0         0         0
         0         0         0         0         0         0         0         0
         0         0         0         0         0         0         0         0
         0         0         0         0         0         0         0         0
         0         0         0         0         0         0         0         0
         0         0         0         0         0         0         0         0
         0         0         0         0         0         0         0         0
         0         0         0         0         0         0         0         0
         0         0         0         0         0         0         0         0
         0         0         0         0         0         0         0         0
         0         0         0         0         0         0         0         0
         0         0         0         0         0         0         0         0
         0         0         0         0         0         0         0         0
         0         0         0         0         0         0         0         0
         0         0         0         0         0         0         0         0
         0         0         0         0         0         0         0         0
         0         0         0         0         0         0         0         0
         0         0         0         0         0         0         0         0
         0         0         0         0         0         0         0         0
         0         0         0         0         0         0         0         0
         0         0         0         0         0         0         0         0
         0         0         0         0         0         0         0         0
         0         0         0         0         0         0         0         0
         0         0         0         0         0         0         0         0
         0         0         0         0         0         0         0         0
         0         0         0         0         0         0         0         0
         0         0         0         0         0         0         0         0
         0         0         0         0         0         0         0         0
         0         0         0         0         0         0         0         0
         0         0         0         0         0         0         0         0
         0         0         0         0         0         0         0         0
         0         0         0         0         0         0         0         0
         0         0         0         0         0         0         0         0
         0         0         0         0         0         0         0         0
         0         0         0         0         0         0         0         0
         0         0         0         0         0         0         0         0
         0         0         0         0         0         0         0         0
         0         0         0         0         0         0         0         0
         0         0         0         0         0         0         0         0
         0         0         0         0         0         0         0         0
         0         0         0         0         0         0         0         0
         0         0         0         0         0         0         0         0
         0         0         0         0         0         0         0         0
         0         0         0         0         0         0         0         0
         0         0         0         0         0         0         0         0
         0         0         0         0         0         0         0         0
         0         0         0         0         0         0         0         0
         0         0         0         0         0         0         0         0
         0         0         0         0         0         0         0         0
         0         0         0         0         0         0         0         0
         0         0         0         0         0         0         0         0
         0         0         0         0         0         0         0         0
         0         0         0         0         0         0         0         0
         0         0         0         0         0         0         0         0
         0         0         0         0         0         0         0         0
         0         0         0         0         0         0         0         0
         0         0         0         0         0         0         0         0
         0         0         0         0         0         0         0         0
         0         0         0         0         0         0         0         0
         0         0         0         0         0         0         0         0
         0         0         0         0         0         0         0         0
         0         0         0         0         0         0         0         0
         0         0         0         0         0         0         0         0
         0         0         0         0         0         0         0         0
         0         0         0         0         0         0         0         0
         0         0         0         0         0         0         0         0
         0         0         0         0         0         0         0         0
         0         0         0         0         0         0         0         0
         0         0         0         0         0         0         0         0
         0         0         0         0         0         0         0         0
         0         0         0         0         0         0         0         0
         0         0         0         0         0         0         0         0
         0         0         0         0         0         0         0         0
         0         0         0         0         0         0         0         0
         0         0         0         0         0         0         0         0
         0         0         0         0         0         0         0         0
         0         0         0         0         0         0         0         0
         0         0         0         0         0         0         0         0
         0         0         0         0         0         0         0         0
         0         0         0         0         0         0         0         0
         0         0         0         0         0         0         0         0
         0         0         0         0         0         0         0         0
         0         0         0         0         0         0         0         0
         0         0         0         0         0         0         0         0
         0         0         0         0         0         0         0         0
         0         0         0         0         0         0         0         0
         0         0         0         0         0         0         0         0
         0         0         0         0         0         0         0         0
         0         0         0         0         0         0         0         0
         0         0         0         0         0         0         0         0
         0         0         0         0         0         0         0         0
         0         0         0         0         0         0         0         0
         0         0         0         0         0         0         0         0
         0         0         0         0         0         0         0         0
         0         0         0         0         0         0         0         0
         0         0         0         0         0         0         0         0
         0         0         0         0         0         0         0         0
         0         0         0         0         0         0         0         0
         0         0         0         0         0         0         0         0
         0         0         0         0         0         0         0         0
         0         0         0         0         0         0         0         0
         0         0         0         0         0         0         0         0
         0         0         0         0         0         0         0         0
         0         0         0         0         0         0         0         0
         0         0         0         0         0         0         0         0
         0         0         0         0         0         0         0         0
         0         0         0         0         0         0         0         0
         0         0         0         0         0         0         0         0
         0         0         0         0         0         0         0         0
         0         0         0         0         0         0         0         0
         0         0         0         0         0         0         0         0
         0         0         0         0         0         0         0         0
         0         0         0         0         0         0         0         0
         0         0         0         0         0         0         0         0
         0         0         0         0         0         0         0         0
         0         0         0         0         0         0         0         0
         0         0         0         0         0         0         0         0
         0         0         0         0         0         0         0         0
         0         0         0         0         0         0         0         0
         0         0         0         0         0         0         0         0
         0         0         0         0         0         0         0         0
         0         0         0         0         0         0         0         0
         0         0         0         0         0         0         0         0
         0         0         0         0         0         0         0         0
         0         0         0         0         0         0         0         0
         0         0         0         0         0         0         0         0
         0         0         0         0         0         0         0         0
         0         0         0         0         0         0         0         0
         0         0         0         0         0         0         0         0
         0         0         0         0         0         0         0         0
         0         0         0         0         0         0         0         0
         0         0         0         0         0         0         0         0
         0         0         0         0         0         0         0         0
         0         0         0         0         0         0         0         0
         0         0         0         0         0         0         0         0
         0         0         0         0         0         0         0         0
         0         0         0         0         0         0         0         0
         0         0         0         0         0         0         0         0
         0         0         0         0         0         0         0         0
         0         0         0         0         0         0         0         0
         0         0         0         0         0         0         0         0
         0         0         0         0         0         0         0         0
         0         0         0         0         0         0         0         0
         0         0         0         0         0         0         0         0
         0         0         0         0         0         0         0         0
         0         0         0         0         0         0         0         0
         0         0         0         0         0         0         0         0
         0         0         0         0         0         0         0         0
         0         0         0         0         0         0         0         0
         0         0         0         0         0         0         0         0
         0         0         0         0         0         0         0         0
         0         0         0         0         0         0         0         0
         0         0         0         0         0         0         0         0
         0         0         0         0         0         0         0         0
         0         0         0         0         0         0         0         0
         0         0         0         0         0         0         0         0
         0         0         0         0         0         0         0         0
         0         0         0         0         0         0         0         0
         0         0         0         0         0         0         0         0
         0         0         0         0         0         0         0         0
         0         0         0         0         0         0         0         0
         0         0         0         0         0         0         0         0
         0         0         0         0         0         0         0         0
         0         0         0         0         0         0         0         0
         0         0         0         0         0         0         0         0
         0         0         0         0         0         0         0         0
         0         0         0         0         0         0         0         0
         0         0         0         0         0         0         0         0
         0         0         0         0         0         0         0         0
         0         0         0         0         0         0         0         0
         0         0         0         0         0         0         0         0
         0         0         0         0         0         0         0         0
         0         0         0         0         0         0         0         0
         0         0         0         0         0         0         0         0
         0         0         0         0         0         0         0         0
         0         0         0         0         0         0         0         0
         0         0         0         0         0         0         0         0
         0         0         0         0         0         0         0         0
         0         0         0         0         0         0         0         0
         0         0         0         0         0         0         0         0
         0         0         0         0         0         0         0         0
         0         0         0         0         0         0         0         0
         0         0         0         0         0         0         0         0
         0         0         0         0         0         0         0         0
         0         0         0         0         0         0         0         0
         0         0         0         0         0         0         0         0
         0         0         0         0         0         0         0         0
         0         0         0         0         0         0         0         0
         0         0         0         0         0         0         0         0
         0         0         0         0         0         0         0         0
         0         0         0         0         0         0         0         0
         0         0         0         0         0         0         0         0
         0         0         0         0         0         0         0         0
         0         0         0         0         0         0         0         0
         0         0         0         0         0         0         0         0
         0         0         0         0         0         0         0         0
         0         0         0         0         0         0         0         0
         0         0         0         0         0         0         0         0
         0         0         0         0         0         0         0         0
         0         0         0         0         0         0         0         0
         0         0         0         0         0         0         0         0
         0         0         0         0         0         0         0         0
         0         0         0         0         0         0         0         0
         0         0         0         0         0         0         0         0
         0         0         0         0         0         0         0         0
         0         0         0         0         0         0         0         0
         0         0         0         0         0         0         0         0
         0         0         0         0         0         0         0         0
         0         0         0         0         0         0         0         0
         0         0         0         0         0         0         0         0
         0         0         0         0         0         0         0         0
         0         0         0         0         0         0         0         0
         0         0         0         0         0         0         0         0
         0         0         0         0         0         0         0         0
         0         0         0         0         0         0         0         0
         0         0         0         0         0         0         0         0
         0         0         0         0         0         0         0         0
         0         0         0         0         0         0         0         0
         0         0         0         0         0         0         0         0
         0         0         0         0         0         0         0         0
         0         0         0         0         0         0         0         0
         0         0         0         0         0         0         0         0
         0         0         0         0         0         0         0         0
         0         0         0         0         0         0         0         0
         0         0         0         0         0         0         0         0
         0         0         0         0         0         0         0         0
         0         0         0         0         0         0         0         0
         0         0         0         0         0         0         0         0
         0         0         0         0         0         0         0         0
         0         0         0         0         0         0         0         0
         0         0         0         0         0         0         0         0
         0         0         0         0         0         0         0         0
         0         0         0         0         0         0         0         0
         0         0         0         0         0         0         0         0
         0         0         0         0         0         0         0         0
         0         0         0         0         0         0         0         0
         0         0         0         0         0         0         0         0
         0         0         0         0         0         0         0         0
         0         0         0         0         0         0         0         0
         0         0         0         0         0         0         0         0
         0         0         0         0         0         0         0         0
         0         0         0         0         0         0         0         0
         0         0         0         0         0         0         0         0
         0         0         0         0         0         0         0         0
         0         0         0         0         0         0         0         0
         0         0         0         0         0         0         0         0
         0         0         0         0         0         0         0         0
         0         0         0         0         0         0         0         0
         0         0         0         0         0         0         0         0
         0         0         0         0         0         0         0         0
         0         0         0         0         0         0         0         0
         0         0         0         0         0         0         0         0
         0         0         0         0         0         0         0         0
         0         0         0         0         0         0         0         0
         0         0         0         0         0         0         0         0
         0         0         0         0         0         0         0         0
         0         0         0         0         0         0         0         0
         0         0         0         0         0         0         0         0
         0         0         0         0         0         0         0         0
         0         0         0         0         0         0         0         0
         0         0         0         0         0         0         0         0
         0         0         0         0         0         0         0         0
         0         0         0         0         0         0         0         0
         0         0         0         0         0         0         0         0
         0         0         0         0         0         0         0         0
         0         0         0         0         0         0         0         0
         0         0         0         0         0         0         0         0
         0         0         0         0         0         0         0         0
         0         0         0         0         0         0         0         0
         0         0         0         0         0         0         0         0
         0         0         0         0         0         0         0         0
         0         0         0         0         0         0         0         0
         0         0         0         0         0         0         0         0
         0         0         0         0         0         0         0         0
         0         0         0         0         0         0         0         0
         0         0         0         0         0         0         0         0
         0         0         0         0         0         0         0         0
         0         0         0         0         0         0         0         0
         0         0         0         0         0         0         0         0
         0         0         0         0         0         0         0         0
         0         0         0         0         0         0         0         0
         0         0         0         0         0         0         0         0
         0         0         0         0         0         0         0         0
         0         0         0         0         0         0         0         0
         0         0         0         0         0         0         0         0
         0         0         0         0         0         0         0         0
         0         0         0         0         0         0         0         0
         0         0         0         0         0         0         0         0
         0         0         0         0         0         0         0         0
         0         0         0         0         0         0         0         0
         0         0         0         0         0         0         0         0
         0         0         0         0         0         0         0         0
         0         0         0         0         0         0         0         0
         0         0         0         0         0         0         0         0
         0         0         0         0         0         0         0         0
         0         0         0         0         0         0         0         0
         0         0         0         0         0         0         0         0
         0         0         0         0         0         0         0         0
         0         0         0         0         0         0         0         0
         0         0         0         0         0         0         0         0
         0         0         0         0         0         0         0         0
         0         0         0         0         0         0         0         0
         0         0         0         0         0         0         0         0
         0         0         0         0         0         0         0         0
         0         0         0         0         0         0         0         0
         0         0         0         0         0         0         0         0
         0         0         0         0         0         0         0         0
         0         0         0         0         0         0         0         0
         0         0         0         0         0         0         0         0
         0         0         0         0         0         0         0         0
         0         0         0         0         0         0         0         0
         0         0         0         0         0         0         0         0
         0         0         0         0         0         0         0         0
         0         0         0         0         0         0         0         0
         0         0         0         0         0         0         0         0
         0         0         0         0         0         0         0         0
         0         0         0         0         0         0         0         0
         0         0         0         0         0         0         0         0
         0         0         0         0         0         0         0         0
         0         0         0         0         0         0         0         0
         0         0         0         0         0         0         0         0
         0         0         0         0         0         0         0         0
         0         0         0         0         0         0         0         0
         0         0         0         0         0         0         0         0
         0         0         0         0         0         0         0         0
         0         0         0         0         0         0         0         0
         0         0         0         0         0         0         0         0
         0         0         0         0         0         0         0         0
         0         0         0         0         0         0         0         0
         0         0         0         0         0         0         0         0
         0         0         0         0         0         0         0         0
         0         0         0         0         0         0         0         0
         0         0         0         0         0         0         0         0
         0         0         0         0         0         0         0         0
         0         0         0         0         0         0         0         0
         0         0         0         0         0         0         0         0
         0         0         0         0         0         0         0         0
         0         0         0         0         0         0         0         0
         0         0         0         0         0         0         0         0
         0         0         0         0         0         0         0         0
         0         0         0         0         0         0         0         0
         0         0         0         0         0         0         0         0
         0         0         0         0         0         0         0         0
         0         0         0         0         0         0         0         0
         0         0         0         0         0         0         0         0
         0         0         0         0         0         0         0         0
         0         0         0         0         0         0         0         0
         0         0         0         0         0         0         0         0
         0         0         0         0         0         0         0         0
         0         0         0         0         0         0         0         0
         0         0         0         0         0         0         0         0
         0         0         0         0         0         0         0         0
         0         0         0         0         0         0         0         0
         0         0         0         0         0         0         0         0
         0         0         0         0         0         0         0         0
         0         0         0         0         0         0         0         0
         0         0         0         0         0         0         0         0
         0         0         0         0         0         0         0         0
         0         0         0         0         0         0         0         0
         0         0         0         0         0         0         0         0
         0         0         0         0         0         0         0         0
         0         0         0         0         0         0         0         0
         0         0         0         0         0         0         0         0
         0         0         0         0         0         0         0         0
         0         0         0         0         0         0         0         0
         0         0         0         0         0         0         0         0
         0         0         0         0         0         0         0         0
         0         0         0         0         0         0         0         0
         0         0         0         0         0         0         0         0
         0         0         0         0         0         0         0         0
         0         0         0         0         0         0         0         0
         0         0         0         0         0         0         0         0
         0         0         0         0         0         0         0         0
         0         0         0         0         0         0         0         0
         0         0         0         0         0         0         0         0
         0         0         0         0         0         0         0         0
         0         0         0         0         0         0         0         0
         0         0         0         0         0         0         0         0
         0         0         0         0         0         0         0         0
         0         0         0         0         0         0         0         0
         0         0         0         0         0         0         0         0
         0         0         0         0         0         0         0         0
         0         0         0         0         0         0         0         0
         0         0         0         0         0         0         0         0
         0         0         0         0         0         0         0         0
         0         0         0         0         0         0         0         0
         0         0         0         0         0         0         0         0
         0         0         0         0         0         0         0         0
         0         0         0         0         0         0         0         0
         0         0         0         0         0         0         0         0
         0         0         0         0         0         0         0         0
         0         0         0         0         0         0         0         0
         0         0         0         0         0         0         0         0
         0         0         0         0         0         0         0         0
         0         0         0         0         0         0         0         0
         0         0         0         0         0         0         0         0
         0         0         0         0         0         0         0         0
         0         0         0         0         0         0         0         0
         0         0         0         0         0         0         0         0
         0         0         0         0         0         0         0         0
         0         0         0         0         0         0         0         0
         0         0         0         0         0         0         0         0
         0         0         0         0         0         0         0         0
         0         0         0         0         0         0         0         0
         0         0         0         0         0         0         0         0
         0         0         0         0         0         0         0         0
         0         0         0         0         0         0         0         0
         0         0         0         0         0         0         0         0
         0         0         0         0         0         0         0         0
         0         0         0         0         0         0         0         0
         0         0         0         0         0         0         0         0
         0         0         0         0         0         0         0         0
         0         0         0         0         0         0         0         0
         0         0         0         0         0         0         0         0
         0         0         0         0         0         0         0         0
         0         0         0         0         0         0         0         0
         0         0         0         0         0         0         0         0
         0         0         0         0         0         0         0         0
         0         0         0         0         0         0         0         0
         0         0         0         0         0         0         0         0
         0         0         0         0         0         0         0         0
         0         0         0         0         0         0         0         0
         0         0         0         0         0         0         0         0
         0         0         0         0         0         0         0         0
         0         0         0         0         0         0         0         0
         0         0         0         0         0         0         0         0
         0         0         0         0         0         0         0         0
         0         0         0         0         0         0         0         0
         0         0         0         0         0         0         0         0
         0         0         0         0         0         0         0         0
         0         0         0         0         0         0         0         0
         0         0         0         0         0         0         0         0
         0         0         0         0         0         0         0         0
         0         0         0         0         0         0         0         0
         0         0         0         0         0         0         0         0
         0         0         0         0         0         0         0         0
         0         0         0         0         0         0         0         0
         0         0         0         0         0         0         0         0
         0         0         0         0         0         0         0         0
         0         0         0         0         0         0         0         0
         0         0         0         0         0         0         0         0
         0         0         0         0         0         0         0         0
         0         0         0         0         0         0         0         0
         0         0         0         0         0         0         0         0
         0         0         0         0         0         0         0         0
         0         0         0         0         0         0         0         0
         0         0         0         0         0         0         0         0
         0         0         0         0         0         0         0         0
         0         0         0         0         0         0         0         0
         0         0         0         0         0         0         0         0
         0         0         0         0         0         0         0         0
         0         0         0         0         0         0         0         0
         0         0         0         0         0         0         0         0
         0         0         0         0         0         0         0         0
         0         0         0         0         0         0         0         0
         0         0         0         0         0         0         0         0
         0         0         0         0         0         0         0         0
         0         0         0         0         0         0         0         0
         0         0         0         0         0         0         0         0
         0         0         0         0         0         0         0         0
         0         0         0         0         0         0         0         0
         0         0         0         0         0         0         0         0
         0         0         0         0         0         0         0         0
         0         0         0         0         0         0         0         0
         0         0         0         0         0         0         0         0
         0         0         0         0         0         0         0         0
         0         0         0         0         0         0         0         0
         0         0         0         0         0         0         0         0
         0         0         0         0         0         0         0         0
         0         0         0         0         0         0         0         0
         0         0         0         0         0         0         0         0
         0         0         0         0         0         0         0         0
         0         0         0         0         0         0         0         0
         0         0         0         0         0         0         0         0
         0         0         0         0         0         0         0         0
         0         0         0         0         0         0         0         0
         0         0         0         0         0         0         0         0
         0         0         0         0         0         0         0         0
         0         0         0         0         0         0         0         0
         0         0         0         0         0         0         0         0
         0         0         0         0         0         0         0         0
         0         0         0         0         0         0         0         0
         0         0         0         0         0         0         0         0
         0         0         0         0         0         0         0         0
         0         0         0         0         0         0         0         0
         0         0         0         0         0         0         0         0
         0         0         0         0         0         0         0         0
         0         0         0         0         0         0         0         0
         0         0         0         0         0         0         0         0
         0         0         0         0         0         0         0         0
         0         0         0         0         0         0         0         0
         0         0         0         0         0         0         0         0
         0         0         0         0         0         0         0         0
         0         0         0         0         0         0         0         0
         0         0         0         0         0         0         0         0
         0         0         0         0         0         0         0         0
         0         0         0         0         0         0         0         0
         0         0         0         0         0         0         0         0
         0         0         0         0         0         0         0         0
         0         0         0         0         0         0         0         0
         0         0         0         0         0         0         0         0
         0         0         0         0         0         0         0         0
         0         0         0         0         0         0         0         0
         0         0         0         0         0         0         0         0
         0         0         0         0         0         0         0         0
         0         0         0         0         0         0         0         0
         0         0         0         0         0         0         0         0
         0         0         0         0         0         0         0         0
         0         0         0         0         0         0         0         0
         0         0         0         0         0         0         0         0
         0         0         0         0         0         0         0         0
         0         0         0         0         0         0         0         0
         0         0         0         0         0         0         0         0
         0         0         0         0         0         0         0         0
         0         0         0         0         0         0         0         0
         0         0         0         0         0         0         0         0
         0         0         0         0         0         0         0         0
         0         0         0         0         0         0         0         0
         0         0         0         0         0         0         0         0
         0         0         0         0         0         0         0         0
         0         0         0         0         0         0         0         0
         0         0         0         0         0         0         0         0
         0         0         0         0         0         0         0         0
         0         0         0         0         0         0         0         0
         0         0         0         0         0         0         0         0
         0         0         0         0         0         0         0         0
         0         0         0         0         0         0         0         0
         0         0         0         0         0         0         0         0
         0         0         0         0         0         0         0         0
         0         0         0         0         0         0         0         0
         0         0         0         0         0         0         0         0
         0         0         0         0         0         0         0         0
         0         0         0         0         0         0         0         0
         0         0         0         0         0         0         0         0
         0         0         0         0         0         0         0         0
         0         0         0         0         0         0         0         0
         0         0         0         0         0         0         0         0
         0         0         0         0         0         0         0         0
         0         0         0         0         0         0         0         0
         0         0         0         0         0         0         0         0
         0         0         0         0         0         0         0         0
         0         0         0         0         0         0         0         0
         0         0         0         0         0         0         0         0
         0         0         0         0         0         0         0         0
         0         0         0         0         0         0         0         0
         0         0         0         0         0         0         0         0
         0         0         0         0         0         0         0         0
         0         0         0         0         0         0         0         0
         0         0         0         0         0         0         0         0
         0         0         0         0         0         0         0         0
         0         0         0         0         0         0         0         0
         0         0         0         0         0         0         0         0
         0         0         0         0         0         0         0         0
         0         0         0         0         0         0         0         0
         0         0         0         0         0         0         0         0
         0         0         0         0         0         0         0         0
         0         0         0         0         0         0         0         0
         0         0         0         0         0         0         0         0
         0         0         0         0         0         0         0         0
         0         0         0         0         0         0         0         0
         0         0         0         0         0         0         0         0
         0         0         0         0         0         0         0         0
         0         0         0         0         0         0         0         0
         0         0         0         0         0         0         0         0
         0         0         0         0         0         0         0         0
         0         0         0         0         0         0         0         0
         0         0         0         0         0         0         0         0
         0         0         0         0         0         0         0         0
         0         0         0         0         0         0         0         0
         0         0         0         0         0         0         0         0
         0         0         0         0         0         0         0         0
         0         0         0         0         0         0         0         0
         0         0         0         0         0         0         0         0
         0         0         0         0         0         0         0         0
         0         0         0         0         0         0         0         0
         0         0         0         0         0         0         0         0
         0         0         0         0         0         0         0         0
         0         0         0         0         0         0         0         0
         0         0         0         0         0         0         0         0
         0         0         0         0         0         0         0         0
         0         0         0         0         0         0         0         0
         0         0         0         0         0         0         0         0
         0         0         0         0         0         0         0         0
         0         0         0         0         0         0         0         0
         0         0         0         0         0         0         0         0
         0         0         0         0         0         0         0         0
         0         0         0         0         0         0         0         0
         0         0         0         0         0         0         0         0
         0         0         0         0         0         0         0         0
         0         0         0         0         0         0         0         0
         0         0         0         0         0         0         0         0
         0         0         0         0         0         0         0         0
         0         0         0         0         0         0         0         0
         0         0         0         0         0         0         0         0
         0         0         0         0         0         0         0         0
         0         0         0         0         0         0         0         0
         0         0         0         0         0         0         0         0
         0         0         0         0         0         0         0         0
         0         0         0         0         0         0         0         0
         0         0         0         0         0         0         0         0
         0         0         0         0         0         0         0         0
         0         0         0         0         0         0         0         0
         0         0         0         0         0         0         0         0
         0         0         0         0         0         0         0         0
         0         0         0         0         0         0         0         0
         0         0         0         0         0         0         0         0
         0         0         0         0         0         0         0         0
         0         0         0         0         0         0         0         0
         0         0         0         0         0         0         0         0
         0         0         0         0         0         0         0         0
         0         0         0         0         0         0         0         0
         0         0         0         0         0         0         0         0
         0         0         0         0         0         0         0         0
         0         0         0         0         0         0         0         0
         0         0         0         0         0         0         0         0
         0         0         0         0         0         0         0         0
         0         0         0         0         0         0         0         0
         0         0         0         0         0         0         0         0
         0         0         0         0         0         0         0         0
         0         0         0         0         0         0         0         0
         0         0         0         0         0         0         0         0
         0         0         0         0         0         0         0         0
         0         0         0         0         0         0         0         0
         0         0         0         0         0         0         0         0
         0         0         0         0         0         0         0         0
         0         0         0         0         0         0         0         0
         0         0         0         0         0         0         0         0
         0         0         0         0         0         0         0         0
         0         0         0         0         0         0         0         0
         0         0         0         0         0         0         0         0
         0         0         0         0         0         0         0         0
         0         0         0         0         0         0         0         0
         0         0         0         0         0         0         0         0
         0         0         0         0         0         0         0         0
         0         0         0         0         0         0         0         0
         0         0         0         0         0         0         0         0
         0         0         0         0         0         0         0         0
         0         0         0         0         0         0         0         0
         0         0         0         0         0         0         0         0
         0         0         0         0         0         0         0         0
         0         0         0         0         0         0         0         0
         0         0         0         0         0         0         0         0
         0         0         0         0         0         0         0         0
         0         0         0         0         0         0         0         0
         0         0         0         0         0         0         0         0
         0         0         0         0         0         0         0         0
         0         0         0         0         0         0         0         0
         0         0         0         0         0         0         0         0
         0         0         0         0         0         0         0         0
         0         0         0         0         0         0         0         0
         0         0         0         0         0         0         0         0
         0         0         0         0         0         0         0         0
         0         0         0         0         0         0         0         0
         0         0         0         0         0         0         0         0
         0         0         0         0         0         0         0         0
         0         0         0         0         0         0         0         0
         0         0         0         0         0         0         0         0
         0         0         0         0         0         0         0         0
         0         0         0         0         0         0         0         0
         0         0         0         0         0         0         0         0
         0         0         0         0         0         0         0         0
         0         0         0         0         0         0         0         0
         0         0         0         0         0         0         0         0
         0         0         0         0         0         0         0         0
         0         0         0         0         0         0         0         0
         0         0         0         0         0         0         0         0
         0         0         0         0         0         0         0         0
         0         0         0         0         0         0         0         0
         0         0         0         0         0         0         0         0
         0         0         0         0         0         0         0         0
         0         0         0         0         0         0         0         0
         0         0         0         0         0         0         0         0
         0         0         0         0         0         0         0         0
         0         0         0         0         0         0         0         0
         0         0         0         0         0         0         0         0
         0         0         0         0         0         0         0         0
         0         0         0         0         0         0         0         0
         0         0         0         0         0         0         0         0
         0         0         0         0         0         0         0         0
         0         0         0         0         0         0         0         0
         0         0         0         0         0         0         0         0
         0         0         0         0         0         0         0         0
         0         0         0         0         0         0         0         0
         0         0         0         0         0         0         0         0
         0         0         0         0         0         0         0         0
         0         0         0         0         0         0         0         0
         0         0         0         0         0         0         0         0
         0         0         0         0         0         0         0         0
         0         0         0         0         0         0         0         0
         0         0         0         0         0         0         0         0
         0         0         0         0         0         0         0         0
         0         0         0         0         0         0         0         0
         0         0         0         0         0         0         0         0
         0         0         0         0         0         0         0         0
         0         0         0         0         0         0         0         0
         0         0         0         0         0         0         0         0
         0         0         0         0         0         0         0         0
         0         0         0         0         0         0         0         0
         0         0         0         0         0         0         0         0
         0         0         0         0         0         0         0         0
         0         0         0         0         0         0         0         0
         0         0         0         0         0         0         0         0
         0         0         0         0         0         0         0         0
         0         0         0         0         0         0         0         0
         0         0         0         0         0         0         0         0
         0         0         0         0         0         0         0         0
         0         0         0         0         0         0         0         0
         0         0         0         0         0         0         0         0
         0         0         0         0         0         0         0         0
         0         0         0         0         0         0         0         0
         0         0         0         0         0         0         0         0
         0         0         0         0         0         0         0         0
         0         0         0         0         0         0         0         0
         0         0         0         0         0         0         0         0
         0         0         0         0         0         0         0         0
         0         0         0         0         0         0         0         0
         0         0         0         0         0         0         0         0
         0         0         0         0         0         0         0         0
         0         0         0         0         0         0         0         0
         0         0         0         0         0         0         0         0
         0         0         0         0         0         0         0         0
         0         0         0         0         0         0         0         0
         0         0         0         0         0         0         0         0
         0         0         0         0         0         0         0         0
         0         0         0         0         0         0         0         0
         0         0         0         0         0         0         0         0
         0         0         0         0         0         0         0         0
         0         0         0         0         0         0         0         0
         0         0         0         0         0         0         0         0
         0         0         0         0         0         0         0         0
         0         0         0         0         0         0         0         0
         0         0         0         0         0         0         0         0
         0         0         0         0         0         0         0         0
         0         0         0         0         0         0         0         0
         0         0         0         0         0         0         0         0
         0         0         0         0         0         0         0         0
         0         0         0         0         0         0         0         0
         0         0         0         0         0         0         0         0
         0         0         0         0         0         0         0         0
         0         0         0         0         0         0         0         0
         0         0         0         0         0         0         0         0
         0         0         0         0         0         0         0         0
         0         0         0         0         0         0         0         0
         0         0         0         0         0         0         0         0
         0         0         0         0         0         0         0         0
         0         0         0         0         0         0         0         0
         0         0         0         0         0         0         0         0
         0         0         0         0         0         0         0         0
         0         0         0         0         0         0         0         0
         0         0         0         0         0         0         0         0
         0         0         0         0         0         0         0         0
         0         0         0         0         0         0         0         0
         0         0         0         0         0         0         0         0
         0         0         0         0         0         0         0         0
         0         0         0         0         0         0         0         0
         0         0         0         0         0         0         0         0
         0         0         0         0         0         0         0         0
         0         0         0         0         0         0         0         0
         0         0         0         0         0         0         0         0
         0         0         0         0         0         0         0         0
         0         0         0         0         0         0         0         0
         0         0         0         0         0         0         0         0
         0         0         0         0         0         0         0         0
         0         0         0         0         0         0         0         0
         0         0         0         0         0         0         0         0
         0         0         0         0         0         0         0         0
         0         0         0         0         0         0         0         0
         0         0         0         0         0         0         0         0
         0         0         0         0         0         0         0         0
         0         0         0         0         0         0         0         0
         0         0         0         0         0         0         0         0
         0         0         0         0         0         0         0         0
         0         0         0         0         0         0         0         0
         0         0         0         0         0         0         0         0
         0         0         0         0         0         0         0         0
         0         0         0         0         0         0         0         0
         0         0         0         0         0         0         0         0
         0         0         0         0         0         0         0         0
         0         0         0         0         0         0         0         0
         0         0         0         0         0         0         0         0
         0         0         0         0         0         0         0         0
         0         0         0         0         0         0         0         0
         0         0         0         0         0         0         0         0
         0         0         0         0         0         0         0         0
         0         0         0         0         0         0         0         0
         0         0         0         0         0         0         0         0
         0         0         0         0         0         0         0         0
         0         0         0         0         0         0         0         0
         0         0         0         0         0         0         0         0
         0         0         0         0         0         0         0         0
         0         0         0         0         0         0         0         0
         0         0         0         0         0         0         0         0
         0         0         0         0         0         0         0         0
         0         0         0         0         0         0         0         0
         0         0         0         0         0         0         0         0
         0         0         0         0         0         0         0         0
         0         0         0         0         0         0         0         0
         0         0         0         0         0         0         0         0
         0         0         0         0         0         0         0         0
         0         0         0         0         0         0         0         0
         0         0         0         0         0         0         0         0
         0         0         0         0         0         0         0         0
         0         0         0         0         0         0         0         0
         0         0         0         0         0         0         0         0
         0         0         0         0         0         0         0         0
         0         0         0         0         0         0         0         0
         0         0         0         0         0         0         0         0
         0         0         0         0         0         0         0         0
         0         0         0         0         0         0         0         0
         0         0         0         0         0         0         0         0
         0         0         0         0         0         0         0         0
         0         0         0         0         0         0         0         0
         0         0         0         0         0         0         0         0
         0         0         0         0         0         0         0         0
         0         0         0         0         0         0         0         0
         0         0         0         0         0         0         0         0
         0         0         0         0         0         0         0         0
         0         0         0         0         0         0         0         0
         0         0         0         0         0         0         0         0
         0         0         0         0         0         0         0         0
         0         0         0         0         0         0         0         0
         0         0         0         0         0         0         0         0
         0         0         0         0         0         0         0         0
         0         0         0         0         0         0         0         0
         0         0         0         0         0         0         0         0
         0         0         0         0         0         0         0         0
         0         0         0         0         0         0         0         0
         0         0         0         0         0         0         0         0
         0         0         0         0         0         0         0         0
         0         0         0         0         0         0         0         0
         0         0         0         0         0         0         0         0
         0         0         0         0         0         0         0         0
         0         0         0         0         0         0         0         0
         0         0         0         0         0         0         0         0
         0         0         0         0         0         0         0         0
         0         0         0         0         0         0         0         0
         0         0         0         0         0         0         0         0
         0         0         0         0         0         0         0         0
         0         0         0         0         0         0         0         0
         0         0         0         0         0         0         0         0
         0         0         0         0         0         0         0         0
         0         0         0         0         0         0         0         0
         0         0         0         0         0         0         0         0
         0         0         0         0         0         0         0         0
         0         0         0         0         0         0         0         0
         0         0         0         0         0         0         0         0
         0         0         0         0         0         0         0         0
         0         0         0         0         0         0         0         0
         0         0         0         0         0         0         0         0
         0         0         0         0         0         0         0         0
         0         0         0         0         0         0         0         0
         0         0         0         0         0         0         0         0
         0         0         0         0         0         0         0         0
         0         0         0         0         0         0         0         0
         0         0         0         0         0         0         0         0
         0         0         0         0         0         0         0         0
         0         0         0         0         0         0         0         0
         0         0         0         0         0         0         0         0
         0         0         0         0         0         0         0         0
         0         0         0         0         0         0         0         0
         0         0         0         0         0         0         0         0
         0         0         0         0         0         0         0         0
         0         0         0         0         0         0         0         0
         0         0         0         0         0         0         0         0
         0         0         0         0         0         0         0         0
         0         0         0         0         0         0         0         0
         0         0         0         0         0         0         0         0
         0         0         0         0         0         0         0         0
         0         0         0         0         0         0         0         0
         0         0         0         0         0         0         0         0
         0         0         0         0         0         0         0         0
         0         0         0         0         0         0         0         0
         0         0         0         0         0         0         0         0
         0         0         0         0         0         0         0         0
         0         0         0         0         0         0         0         0
         0         0         0         0         0         0         0         0
         0         0         0         0         0         0         0         0
         0         0         0         0         0         0         0         0
         0         0         0         0         0         0         0         0
         0         0         0         0         0         0         0         0
         0         0         0         0         0         0         0         0
         0         0         0         0         0         0         0         0
         0         0         0         0         0         0         0         0
         0         0         0         0         0         0         0         0
         0         0         0         0         0         0         0         0
         0         0         0         0         0         0         0         0
         0         0         0         0         0         0         0         0
         0         0         0         0         0         0         0         0
         0         0         0         0         0         0         0         0
         0         0         0         0         0         0         0         0
         0         0         0         0         0         0         0         0
         0         0         0         0         0         0         0         0
         0         0         0         0         0         0         0         0
         0         0         0         0         0         0         0         0
         0         0         0         0         0         0         0         0
         0         0         0         0         0         0         0         0
         0         0         0         0         0         0         0         0
         0         0         0         0         0         0         0         0
         0         0         0         0         0         0         0         0
         0         0         0         0         0         0         0         0
         0         0         0         0         0         0         0         0
         0         0         0         0         0         0         0         0
         0         0         0         0         0         0         0         0
         0         0         0         0         0         0         0         0
         0         0         0         0         0         0         0         0
         0         0         0         0         0         0         0         0
         0         0         0         0         0         0         0         0
         0         0         0         0         0         0         0         0
         0         0         0         0         0         0         0         0
         0         0         0         0         0         0         0         0
         0         0         0         0         0         0         0         0
         0         0         0         0         0         0         0         0
         0         0         0         0         0         0         0         0
         0         0         0         0         0         0         0         0
         0         0         0         0         0         0         0         0
         0         0         0         0         0         0         0         0
         0         0         0         0         0         0         0         0
         0         0         0         0         0         0         0         0
         0         0         0         0         0         0         0         0
         0         0         0         0         0         0         0         0
         0         0         0         0         0         0         0         0
         0         0         0         0         0         0         0         0
         0         0         0         0         0         0         0         0
         0         0         0         0         0         0         0         0
         0         0         0         0         0         0         0         0
         0         0         0         0         0         0         0         0
         0         0         0         0         0         0         0         0
         0         0         0         0         0         0         0         0
         0         0         0         0         0         0         0         0
         0         0         0         0         0         0         0         0
         0         0         0         0         0         0         0         0
         0         0         0         0         0         0         0         0
         0         0         0         0         0         0         0         0
         0         0         0         0         0         0         0         0
         0         0         0         0         0         0         0         0
         0         0         0         0         0         0         0         0
         0         0         0         0         0         0         0         0
         0         0         0         0         0         0         0         0
         0         0         0         0         0         0         0         0
         0         0         0         0         0         0         0         0
         0         0         0         0         0         0         0         0
         0         0         0         0         0         0         0         0
         0         0         0         0         0         0         0         0
         0         0         0         0         0         0         0         0
         0         0         0         0         0         0         0         0
         0         0         0         0         0         0         0         0
         0         0         0         0         0         0         0         0
         0         0         0         0         0         0         0         0
         0         0         0         0         0         0         0         0
         0         0         0         0         0         0         0         0
         0         0         0         0         0         0         0         0
         0         0         0         0         0         0         0         0
         0         0         0         0         0         0         0         0
         0         0         0         0         0         0         0         0
         0         0         0         0         0         0         0         0
         0         0         0         0         0         0         0         0
         0         0         0         0         0         0         0         0
         0         0         0         0         0         0         0         0
         0         0         0         0         0         0         0         0
         0         0         0         0         0         0         0         0
         0         0         0         0         0         0         0         0
         0         0         0         0         0         0         0         0
         0         0         0         0         0         0         0         0
         0         0         0         0         0         0         0         0
         0         0         0         0         0         0         0         0
         0         0         0         0         0         0         0         0
         0         0         0         0         0         0         0         0
         0         0         0         0         0         0         0         0
         0         0         0         0         0         0         0         0
         0         0         0         0         0         0         0         0
         0         0         0         0         0         0         0         0
         0         0         0         0         0         0         0         0
         0         0         0         0         0         0         0         0
         0         0         0         0         0         0         0         0
         0         0         0         0         0         0         0         0
         0         0         0         0         0         0         0         0
         0         0         0         0         0         0         0         0
         0         0         0         0         0         0         0         0
         0         0         0         0         0         0         0         0
         0         0         0         0         0         0         0         0
         0         0         0         0         0         0         0         0
         0         0         0         0         0         0         0         0
         0         0         0         0         0         0         0         0
         0         0         0         0         0         0         0         0
         0         0         0         0         0         0         0         0
         0         0         0         0         0         0         0         0
         0         0         0         0         0         0         0         0
         0         0         0         0         0         0         0         0
         0         0         0         0         0         0         0         0
         0         0         0         0         0         0         0         0
         0         0         0         0         0         0         0         0
         0         0         0         0         0         0         0         0
         0         0         0         0         0         0         0         0
         0         0         0         0         0         0         0         0
         0         0         0         0         0         0         0         0
         0         0         0         0         0         0         0         0
         0         0         0         0         0         0         0         0
         0         0         0         0         0         0         0         0
         0         0         0         0         0         0         0         0
         0         0         0         0         0         0         0         0
         0         0         0         0         0         0         0         0
         0         0         0         0         0         0         0         0
         0         0         0         0         0         0         0         0
         0         0         0         0         0         0         0         0
         0         0         0         0         0         0         0         0
         0         0         0         0         0         0         0         0
         0         0         0         0         0         0         0         0
         0         0         0         0         0         0         0         0
         0         0         0         0         0         0         0         0
         0         0         0         0         0         0         0         0
         0         0         0         0         0         0         0         0
         0         0         0         0         0         0         0         0
         0         0         0         0         0         0         0         0
         0         0         0         0         0         0         0         0
         0         0         0         0         0         0         0         0
         0         0         0         0         0         0         0         0
         0         0         0         0         0         0         0         0
         0         0         0         0         0         0         0         0
         0         0         0         0         0         0         0         0
         0         0         0         0         0         0         0         0
         0         0         0         0         0         0         0         0
         0         0         0         0         0         0         0         0
         0         0         0         0         0         0         0         0
         0         0         0         0         0         0         0         0
         0         0         0         0         0         0         0         0
         0         0         0         0         0         0         0         0
         0         0         0         0         0         0         0         0
         0         0         0         0         0         0         0         0
         0         0         0         0         0         0         0         0
         0         0         0         0         0         0         0         0
         0         0         0         0         0         0         0         0
         0         0         0         0         0         0         0         0
         0         0         0         0         0         0         0         0
         0         0         0         0         0         0         0         0
         0         0         0         0         0         0         0         0
         0         0         0         0         0         0         0         0
         0         0         0         0         0         0         0         0
         0         0         0         0         0         0         0         0
         0         0         0         0         0         0         0         0
         0         0         0         0         0         0         0         0
         0         0         0         0         0         0         0         0
         0         0         0         0         0         0         0         0
         0         0         0         0         0         0         0         0
         0         0         0         0         0         0         0         0
         0         0         0         0         0         0         0         0
         0         0         0         0         0         0         0         0
         0         0         0         0         0         0         0         0
         0         0         0         0         0         0         0         0
         0         0         0         0         0         0         0         0
         0         0         0         0         0         0         0         0
         0         0         0         0         0         0         0         0
         0         0         0         0         0         0         0         0
         0         0         0         0         0         0         0         0
         0         0         0         0         0         0         0         0
         0         0         0         0         0         0         0         0
         0         0         0         0         0         0         0         0
         0         0         0         0         0         0         0         0
         0         0         0         0         0         0         0         0
         0         0         0         0         0         0         0         0
         0         0         0         0         0         0         0         0
         0         0         0         0         0         0         0         0
         0         0         0         0         0         0         0         0
         0         0         0         0         0         0         0         0
         0         0         0         0         0         0         0         0
         0         0         0         0         0         0         0         0
         0         0         0         0         0         0         0         0
         0         0         0         0         0         0         0         0
         0         0         0         0         0         0         0         0
         0         0         0         0         0         0         0         0
         0         0         0         0         0         0         0         0
         0         0         0         0         0         0         0         0
         0         0         0         0         0         0         0         0
         0         0         0         0         0         0         0         0
         0         0         0         0         0         0         0         0
         0         0         0         0         0         0         0         0
         0         0         0         0         0         0         0         0
         0         0         0         0         0         0         0         0
         0         0         0         0         0         0         0         0
         0         0         0         0         0         0         0         0
         0         0         0         0         0         0         0         0
         0         0         0         0         0         0         0         0
         0         0         0         0         0         0         0         0
         0         0         0         0         0         0         0         0
         0         0         0         0         0         0         0         0
         0         0         0         0         0         0         0         0
         0         0         0         0         0         0         0         0
         0         0         0         0         0         0         0         0
         0         0         0         0         0         0         0         0
         0         0         0         0         0         0         0         0
         0         0         0         0         0         0         0         0
         0         0         0         0         0         0         0         0
         0         0         0         0         0         0         0         0
         0         0         0         0         0         0         0         0
         0         0         0         0         0         0         0         0
         0         0         0         0         0         0         0         0
         0         0         0         0         0         0         0         0
         0         0         0         0         0         0         0         0
         0         0         0         0         0         0         0         0
         0         0         0         0         0         0         0         0
         0         0         0         0         0         0         0         0
         0         0         0         0         0         0         0         0
         0         0         0         0         0         0         0         0
         0         0         0         0         0         0         0         0
         0         0         0         0         0         0         0         0
         0         0         0         0         0         0         0         0
         0         0         0         0         0         0         0         0
         0         0         0         0         0         0         0         0
         0         0         0         0         0         0         0         0
         0         0         0         0         0         0         0         0
         0         0         0         0         0         0         0         0
         0         0         0         0         0         0         0         0
         0         0         0         0         0         0         0         0
         0         0         0         0         0         0         0         0
         0         0         0         0         0         0         0         0
         0         0         0         0         0         0         0         0
         0         0         0         0         0         0         0         0
         0         0         0         0         0         0         0         0
         0         0         0         0         0         0         0         0
         0         0         0         0         0         0         0         0
         0         0         0         0         0         0         0         0
         0         0         0         0         0         0         0         0
         0         0         0         0         0         0         0         0
         0         0         0         0         0         0         0         0
         0         0         0         0         0         0         0         0
         0         0         0         0         0         0         0         0
         0         0         0         0         0         0         0         0
         0         0         0         0         0         0         0         0
         0         0         0         0         0         0         0         0
         0         0         0         0         0         0         0         0
         0         0         0         0         0         0         0         0
         0         0         0         0         0         0         0         0
         0         0         0         0         0         0         0         0
         0         0         0         0         0         0         0         0
         0         0         0         0         0         0         0         0
         0         0         0         0         0         0         0         0
         0         0         0         0         0         0         0         0
         0         0         0         0         0         0         0         0
         0         0         0         0         0         0         0         0
         0         0         0         0         0         0         0         0
         0         0         0         0         0         0         0         0
         0         0         0         0         0         0         0         0
         0         0         0         0         0         0         0         0
         0         0         0         0         0         0         0         0
         0         0         0         0         0         0         0         0
         0         0         0         0         0         0         0         0
         0         0         0         0         0         0         0         0
         0         0         0         0         0         0         0         0
         0         0         0         0         0         0         0         0
         0         0         0         0         0         0         0         0
         0         0         0         0         0         0         0         0
         0         0         0         0         0         0         0         0
         0         0         0         0         0         0         0         0
         0         0         0         0         0         0         0         0
         0         0         0         0         0         0         0         0
         0         0         0         0         0         0         0         0
         0         0         0         0         0         0         0         0
         0         0         0         0         0         0         0         0
         0         0         0         0         0         0         0         0
         0         0         0         0         0         0         0         0
         0         0         0         0         0         0         0         0
         0         0         0         0         0         0         0         0
         0         0         0         0         0         0         0         0
         0         0         0         0         0         0         0         0
         0         0         0         0         0         0         0         0
         0         0         0         0         0         0         0         0
         0         0         0         0         0         0         0         0
         0         0         0         0         0         0         0         0
         0         0         0         0         0         0         0         0
         0         0         0         0         0         0         0         0
         0         0         0         0         0         0         0         0
         0         0         0         0         0         0         0         0
         0         0         0         0         0         0         0         0
         0         0         0         0         0         0         0         0
         0         0         0         0         0         0         0         0
         0         0         0         0         0         0         0         0
         0         0         0         0         0         0         0         0
         0         0         0         0         0         0         0         0
         0         0         0         0         0         0         0         0
         0         0         0         0         0         0         0         0
         0         0         0         0         0         0         0         0
         0         0         0         0         0         0         0         0
         0         0         0         0         0         0         0         0
         0         0         0         0         0         0         0         0
         0         0         0         0         0         0         0         0
         0         0         0         0         0         0         0         0
         0         0         0         0         0         0         0         0
         0         0         0         0         0         0         0         0
         0         0         0         0         0         0         0         0
         0         0         0         0         0         0         0         0
         0         0         0         0         0         0         0         0
         0         0         0         0         0         0         0         0
         0         0         0         0         0         0         0         0
         0         0         0         0         0         0         0         0
         0         0         0         0         0         0         0         0
         0         0         0         0         0         0         0         0
         0         0         0         0         0         0         0         0
         0         0         0         0         0         0         0         0
         0         0         0         0         0         0         0         0
         0         0         0         0         0         0         0         0
         0         0         0         0         0         0         0         0
         0         0         0         0         0         0         0         0
         0         0         0         0         0         0         0         0
         0         0         0         0         0         0         0         0
         0         0         0         0         0         0         0         0
         0         0         0         0         0         0         0         0
         0         0         0         0         0         0         0         0
         0         0         0         0         0         0         0         0
         0         0         0         0         0         0         0         0
         0         0         0         0         0         0         0         0
         0         0         0         0         0         0         0         0
         0         0         0         0         0         0         0         0
         0         0         0         0         0         0         0         0
         0         0         0         0         0         0         0         0
         0         0         0         0         0         0         0         0
         0         0         0         0         0         0         0         0
         0         0         0         0         0         0         0         0
         0         0         0         0         0         0         0         0
         0         0         0         0         0         0         0         0
         0         0         0         0         0         0         0         0
         0         0         0         0         0         0         0         0
         0         0         0         0         0         0         0         0
         0         0         0         0         0         0         0         0
         0         0         0         0         0         0         0         0
         0         0         0         0         0         0         0         0
         0         0         0         0         0         0         0         0
         0         0         0         0         0         0         0         0
         0         0         0         0         0         0         0         0
         0         0         0         0         0         0         0         0
         0         0         0         0         0         0         0         0
         0         0         0         0         0         0         0         0
         0         0         0         0         0         0         0         0
         0         0         0         0         0         0         0         0
         0         0         0         0         0         0         0         0
         0         0         0         0         0         0         0         0
         0         0         0         0         0         0         0         0
         0         0         0         0         0         0         0         0
         0         0         0         0         0         0         0         0
         0         0         0         0         0         0         0         0
         0         0         0         0         0         0         0         0
         0         0         0         0         0         0         0         0
         0         0         0         0         0         0         0         0
         0         0         0         0         0         0         0         0
         0         0         0         0         0         0         0         0
         0         0         0         0         0         0         0         0
         0         0         0         0         0         0         0         0
         0         0         0         0         0         0         0         0
         0         0         0         0         0         0         0         0
         0         0         0         0         0         0         0         0
         0         0         0         0         0         0         0         0
         0         0         0         0         0         0         0         0
         0         0         0         0         0         0         0         0
         0         0         0         0         0         0         0         0
         0         0         0         0         0         0         0         0
         0         0         0         0         0         0         0         0
         0         0         0         0         0         0         0         0
         0         0         0         0         0         0         0         0
         0         0         0         0         0         0         0         0
         0         0         0         0         0         0         0         0
         0         0         0         0         0         0         0         0
         0         0         0         0         0         0         0         0
         0         0         0         0         0         0         0         0
         0         0         0         0         0         0         0         0
         0         0         0         0         0         0         0         0
         0         0         0         0         0         0         0         0
         0         0         0         0         0         0         0         0
         0         0         0         0         0         0         0         0
         0         0         0         0         0         0         0         0
         0         0         0         0         0         0         0         0
         0         0         0         0         0         0         0         0
         0         0         0         0         0         0         0         0
         0         0         0         0         0         0         0         0
         0         0         0         0         0         0         0         0
         0         0         0         0         0         0         0         0
         0         0         0         0         0         0         0         0
         0         0         0         0         0         0         0         0
         0         0         0         0         0         0         0         0
         0         0         0         0         0         0         0         0
         0         0         0         0         0         0         0         0
         0         0         0         0         0         0         0         0
         0         0         0         0         0         0         0         0
         0         0         0         0         0         0         0         0
         0         0         0         0         0         0         0         0
         0         0         0         0         0         0         0         0
         0         0         0         0         0         0         0         0
         0         0         0         0         0         0         0         0
         0         0         0         0         0         0         0         0
         0         0         0         0         0         0         0         0
         0         0         0         0         0         0         0         0
         0         0         0         0         0         0         0         0
         0         0         0         0         0         0         0         0
         0         0         0         0         0         0         0         0
         0         0         0         0         0         0         0         0
         0         0         0         0         0         0         0         0
         0         0         0         0         0         0         0         0
         0         0         0         0         0         0         0         0
         0         0         0         0         0         0         0         0
         0         0         0         0         0         0         0         0
         0         0         0         0         0         0         0         0
         0         0         0         0         0         0         0         0
         0         0         0         0         0         0         0         0
         0         0         0         0         0         0         0         0
         0         0         0         0         0         0         0         0
         0         0         0         0         0         0         0         0
         0         0         0         0         0         0         0         0
         0         0         0         0         0         0         0         0
         0         0         0         0         0         0         0         0
         0         0         0         0         0         0         0         0
         0         0         0         0         0         0         0         0
         0         0         0         0         0         0         0         0
         0         0         0         0         0         0         0         0
         0         0         0         0         0         0         0         0
         0         0         0         0         0         0         0         0
         0         0         0         0         0         0         0         0
         0         0         0         0         0         0         0         0
         0         0         0         0         0         0         0         0
         0         0         0         0         0         0         0         0
         0         0         0         0         0         0         0         0
         0         0         0         0         0         0         0         0
         0         0         0         0         0         0         0         0
         0         0         0         0         0         0         0         0
         0         0         0         0         0         0         0         0
         0         0         0         0         0         0         0         0
         0         0         0         0         0         0         0         0
         0         0         0         0         0         0         0         0
         0         0         0         0         0         0         0         0
         0         0         0         0         0         0         0         0
         0         0         0         0         0         0         0         0
         0         0         0         0         0         0         0         0
         0         0         0         0         0         0         0         0
         0         0         0         0         0         0         0         0
         0         0         0         0         0         0         0         0
         0         0         0         0         0         0         0         0
         0         0         0         0         0         0         0         0
         0         0         0         0         0         0         0         0
         0         0         0         0         0         0         0         0
         0         0         0         0         0         0         0         0
         0         0         0         0         0         0         0         0
         0         0         0         0         0         0         0         0
         0         0         0         0         0         0         0         0
         0         0         0         0         0         0         0         0
         0         0         0         0         0         0         0         0
         0         0         0         0         0         0         0         0
         0         0         0         0         0         0         0         0
         0         0         0         0         0         0         0         0
         0         0         0         0         0         0         0         0
         0         0         0         0         0         0         0         0
         0         0         0         0         0         0         0         0
         0         0         0         0         0         0         0         0
         0         0         0         0         0         0         0         0
         0         0         0         0         0         0         0         0
         0         0         0         0         0         0         0         0
         0         0         0         0         0         0         0         0
         0         0         0         0         0         0         0         0
         0         0         0         0         0         0         0         0
         0         0         0         0         0         0         0         0
         0         0         0         0         0         0         0         0
         0         0         0         0         0         0         0         0
         0         0         0         0         0         0         0         0
         0         0         0         0         0         0         0         0
         0         0         0         0         0         0         0         0
         0         0         0         0         0         0         0         0
         0         0         0         0         0         0         0         0
         0         0         0         0         0         0         0         0
         0         0         0         0         0         0         0         0
         0         0         0         0         0         0         0         0
         0         0         0         0         0         0         0         0
         0         0         0         0         0         0         0         0
         0         0         0         0         0         0         0         0
         0         0         0         0         0         0         0         0
         0         0         0         0         0         0         0         0
         0         0         0         0         0         0         0         0
         0         0         0         0         0         0         0         0
         0         0         0         0         0         0         0         0
         0         0         0         0         0         0         0         0
         0         0         0         0         0         0         0         0
         0         0         0         0         0         0         0         0
         0         0         0         0         0         0         0         0
         0         0         0         0         0         0         0         0
         0         0         0         0         0         0         0         0
         0         0         0         0         0         0         0         0
         0         0         0         0         0         0         0         0
         0         0         0         0         0         0         0         0
         0         0         0         0         0         0         0         0
         0         0         0         0         0         0         0         0
         0         0         0         0         0         0         0         0
         0         0         0         0         0         0         0         0
         0         0         0         0         0         0         0         0
         0         0         0         0         0         0         0         0
         0         0         0         0         0         0         0         0
         0         0         0         0         0         0         0         0
         0         0         0         0         0         0         0         0
         0         0         0         0         0         0         0         0
         0         0         0         0         0         0         0         0
         0         0         0         0         0         0         0         0
         0         0         0         0         0         0         0         0
         0         0         0         0         0         0         0         0
         0         0         0         0         0         0         0         0
         0         0         0         0         0         0         0         0
         0         0         0         0         0         0         0         0
         0         0         0         0         0         0         0         0
         0         0         0         0         0         0         0         0
         0         0         0         0         0         0         0         0
         0         0         0         0         0         0         0         0
         0         0         0         0         0         0         0         0
         0         0         0         0         0         0         0         0
         0         0         0         0         0         0         0         0
         0         0         0         0         0         0         0         0
         0         0         0         0         0         0         0         0
         0         0         0         0         0         0         0         0
         0         0         0         0         0         0         0         0
         0         0         0         0         0         0         0         0
         0         0         0         0         0         0         0         0
         0         0         0         0         0         0         0         0
         0         0         0         0         0         0         0         0
         0         0         0         0         0         0         0         0
         0         0         0         0         0         0         0         0
         0         0         0         0         0         0         0         0
         0         0         0         0         0         0         0         0
         0         0         0         0         0         0         0         0
         0         0         0         0         0         0         0         0
         0         0         0         0         0         0         0         0
         0         0         0         0         0         0         0         0
         0         0         0         0         0         0         0         0
         0         0         0         0         0         0         0         0
         0         0         0         0         0         0         0         0
         0         0         0         0         0         0         0         0
         0         0         0         0         0         0         0         0
         0         0         0         0         0         0         0         0
         0         0         0         0         0         0         0         0
         0         0         0         0         0         0         0         0
         0         0         0         0         0         0         0         0
         0         0         0         0         0         0         0         0
         0         0         0         0         0         0         0         0
         0         0         0         0         0         0         0         0
         0         0         0         0         0         0         0         0
         0         0         0         0         0         0         0         0
         0         0         0         0         0         0         0         0
         0         0         0         0         0         0         0         0
         0         0         0         0         0         0         0         0
         0         0         0         0         0         0         0         0
         0         0         0         0         0         0         0         0
         0         0         0         0         0         0         0         0
         0         0         0         0         0         0         0         0
         0         0         0         0         0         0         0         0
         0         0         0         0         0         0         0         0
         0         0         0         0         0         0         0         0
         0         0         0         0         0         0         0         0
         0         0         0         0         0         0         0         0
         0         0         0         0         0         0         0         0
         0         0         0         0         0         0         0         0
         0         0         0         0         0         0         0         0
         0         0         0         0         0         0         0         0
         0         0         0         0         0         0         0         0
         0         0         0         0         0         0         0         0
         0         0         0         0         0         0         0         0
         0         0         0         0         0         0         0         0
         0         0         0         0         0         0         0         0
         0         0         0         0         0         0         0         0
         0         0         0         0         0         0         0         0
         0         0         0         0         0         0         0         0
         0         0         0         0         0         0         0         0
         0         0         0         0         0         0         0         0
         0         0         0         0         0         0         0         0
         0         0         0         0         0         0         0         0
         0         0         0         0         0         0         0         0
         0         0         0         0         0         0         0         0
         0         0         0         0         0         0         0         0
         0         0         0         0         0         0         0         0
         0         0         0         0         0         0         0         0
         0         0         0         0         0         0         0         0
         0         0         0         0         0         0         0         0
         0         0         0         0         0         0         0         0
         0         0         0         0         0         0         0         0
         0         0         0         0         0         0         0         0
         0         0         0         0         0         0         0         0
         0         0         0         0         0         0         0         0
         0         0         0         0         0         0         0         0
         0         0         0         0         0         0         0         0
         0         0         0         0         0         0         0         0
         0         0         0         0         0         0         0         0
         0         0         0         0         0         0         0         0
         0         0         0         0         0         0         0         0
         0         0         0         0         0         0         0         0
         0         0         0         0         0         0         0         0
         0         0         0         0         0         0         0         0
         0         0         0         0         0         0         0         0
         0         0         0         0         0         0         0         0
         0         0         0         0         0         0         0         0
         0         0         0         0         0         0         0         0
         0         0         0         0         0         0         0         0
         0         0         0         0         0         0         0         0
         0         0         0         0         0         0         0         0
         0         0         0         0         0         0         0         0
         0         0         0         0         0         0         0         0
         0         0         0         0         0         0         0         0
         0         0         0         0         0         0         0         0
         0         0         0         0         0         0         0         0
         0         0         0         0         0         0         0         0
         0         0         0         0         0         0         0         0
         0         0         0         0         0         0         0         0
         0         0         0         0         0         0         0         0
         0         0         0         0         0         0         0         0
         0         0         0         0         0         0         0         0
         0         0         0         0         0         0         0         0
         0         0         0         0         0         0         0         0
         0         0         0         0         0         0         0         0
         0         0         0         0         0         0         0         0
         0         0         0         0         0         0         0         0
         0         0         0         0         0         0         0         0
         0         0         0         0         0         0         0         0
         0         0         0         0         0         0         0         0
         0         0         0         0         0         0         0         0
         0         0         0         0         0         0         0         0
         0         0         0         0         0         0         0         0
         0         0         0         0         0         0         0         0
         0         0         0         0         0         0         0         0
         0         0         0         0         0         0         0         0
         0         0         0         0         0         0         0         0
         0         0         0         0         0         0         0         0
         0         0         0         0         0         0         0         0
         0         0         0         0         0         0         0         0
         0         0         0         0         0         0         0         0
         0         0         0         0         0         0         0         0
         0         0         0         0         0         0         0         0
         0         0         0         0         0         0         0         0
         0         0         0         0         0         0         0         0
         0         0         0         0         0         0         0         0
         0         0         0         0         0         0         0         0
         0         0         0         0         0         0         0         0
         0         0         0         0         0         0         0         0
         0         0         0         0         0         0         0         0
         0         0         0         0         0         0         0         0
         0         0         0         0         0         0         0         0
         0         0         0         0         0         0         0         0
         0         0         0         0         0         0         0         0
         0         0         0         0         0         0         0         0
         0         0         0         0         0         0         0         0
         0         0         0         0         0         0         0         0
         0         0         0         0         0         0         0         0
         0         0         0         0         0         0         0         0
         0         0         0         0         0         0         0         0
         0         0         0         0         0         0         0         0
         0         0         0         0         0         0         0         0
         0         0         0         0         0         0         0         0
         0         0         0         0         0         0         0         0
         0         0         0         0         0         0         0         0
         0         0         0         0         0         0         0         0
         0         0         0         0         0         0         0         0
         0         0         0         0         0         0         0         0
         0         0         0         0         0         0         0         0
         0         0         0         0         0         0         0         0
         0         0         0         0         0         0         0         0
         0         0         0         0         0         0         0         0
         0         0         0         0         0         0         0         0
         0         0         0         0         0         0         0         0
         0         0         0         0         0         0         0         0
         0         0         0         0         0         0         0         0
         0         0         0         0         0         0         0         0
         0         0         0         0         0         0         0         0
         0         0         0         0         0         0         0         0
         0         0         0         0         0         0         0         0
         0         0         0         0         0         0         0         0
         0         0         0         0         0         0         0         0
         0         0         0         0         0         0         0         0
         0         0         0         0         0         0         0         0
         0         0         0         0         0         0         0         0
         0         0         0         0         0         0         0         0
         0         0         0         0         0         0         0         0
         0         0         0         0         0         0         0         0
         0         0         0         0         0         0         0         0
         0         0         0         0         0         0         0         0
         0         0         0         0         0         0         0         0
         0         0         0         0         0         0         0         0
         0         0         0         0         0         0         0         0
         0         0         0         0         0         0         0         0
         0         0         0         0         0         0         0         0
         0         0         0         0         0         0         0         0
         0         0         0         0         0         0         0         0
         0         0         0         0         0         0         0         0
         0         0         0         0         0         0         0         0
         0         0         0         0         0         0         0         0
         0         0         0         0         0         0         0         0
         0         0         0         0         0         0         0         0
         0         0         0         0         0         0         0         0
         0         0         0         0         0         0         0         0
         0         0         0         0         0         0         0         0
         0         0         0         0         0         0         0         0
         0         0         0         0         0         0         0         0
         0         0         0         0         0         0         0         0
         0         0         0         0         0         0         0         0
         0         0         0         0         0         0         0         0
         0         0         0         0         0         0         0         0
         0         0         0         0         0         0         0         0
         0         0         0         0         0         0         0         0
         0         0         0         0         0         0         0         0
         0         0         0         0         0         0         0         0
         0         0         0         0         0         0         0         0
         0         0         0         0         0         0         0         0
         0         0         0         0         0         0         0         0
         0         0         0         0         0         0         0         0
         0         0         0         0         0         0         0         0
         0         0         0         0         0         0         0         0
         0         0         0         0         0         0         0         0
         0         0         0         0         0         0         0         0
         0         0         0         0         0         0         0         0
         0         0         0         0         0         0         0         0
         0         0         0         0         0         0         0         0
         0         0         0         0         0         0         0         0
         0         0         0         0         0         0         0         0
         0         0         0         0         0         0         0         0
         0         0         0         0         0         0         0         0
         0         0         0         0         0         0         0         0
         0         0         0         0         0         0         0         0
         0         0         0         0         0         0         0         0
         0         0         0         0         0         0         0         0
         0         0         0         0         0         0         0         0
         0         0         0         0         0         0         0         0
         0         0         0         0         0         0         0         0
         0         0         0         0         0         0         0         0
         0         0         0         0         0         0         0         0
         0         0         0         0         0         0         0         0
         0         0         0         0         0         0         0         0
         0         0         0         0         0         0         0         0
         0         0         0         0         0         0         0         0
         0         0         0         0         0         0         0         0
         0         0         0         0         0         0         0         0
         0         0         0         0         0         0         0         0
         0         0         0         0         0         0         0         0
         0         0         0         0         0         0         0         0
         0         0         0         0         0         0         0         0
         0         0         0         0         0         0         0         0
         0         0         0         0         0         0         0         0
         0         0         0         0         0         0         0         0
         0         0         0         0         0         0         0         0
         0         0         0         0         0         0         0         0
         0         0         0         0         0         0         0         0
         0         0         0         0         0         0         0         0
         0         0         0         0         0         0         0         0
         0         0         0         0         0         0         0         0
         0         0         0         0         0         0         0         0
         0         0         0         0         0         0         0         0
         0         0         0         0         0         0         0         0
         0         0         0         0         0         0         0         0
         0         0         0         0         0         0         0         0
         0         0         0         0         0         0         0         0
         0         0         0         0         0         0         0         0
         0         0         0         0         0         0         0         0
         0         0         0         0         0         0         0         0
         0         0         0         0         0         0         0         0
         0         0         0         0         0         0         0         0
         0         0         0         0         0         0         0         0
         0         0         0         0         0         0         0         0
         0         0         0         0         0         0         0         0
         0         0         0         0         0         0         0         0
         0         0         0         0         0         0         0         0
         0         0         0         0         0         0         0         0
         0         0         0         0         0         0         0         0
         0         0         0         0         0         0         0         0
         0         0         0         0         0         0         0         0
         0         0         0         0         0         0         0         0
         0         0         0         0         0         0         0         0
         0         0         0         0         0         0         0         0
         0         0         0         0         0         0         0         0
         0         0         0         0         0         0         0         0
         0         0         0         0         0         0         0         0
         0         0         0         0         0         0         0         0
         0         0         0         0         0         0         0         0
         0         0         0         0         0         0         0         0
         0         0         0         0         0         0         0         0
         0         0         0         0         0         0         0         0
         0         0         0         0         0         0         0         0
         0         0         0         0         0         0         0         0
         0         0         0         0         0         0         0         0
         0         0         0         0         0         0         0         0
         0         0         0         0         0         0         0         0
         0         0         0         0         0         0         0         0
         0         0         0         0         0         0         0         0
         0         0         0         0         0         0         0         0
         0         0         0         0         0         0         0         0
         0         0         0         0         0         0         0         0
         0         0         0         0         0         0         0         0
         0         0         0         0         0         0         0         0
         0         0         0         0         0         0         0         0
         0         0         0         0         0         0         0         0
         0         0         0         0         0         0         0         0
         0         0         0         0         0         0         0         0
         0         0         0         0         0         0         0         0
         0         0         0         0         0         0         0         0
         0         0         0         0         0         0         0         0
         0         0         0         0         0         0         0         0
         0         0         0         0         0         0         0         0
         0         0         0         0         0         0         0         0
         0         0         0         0         0         0         0         0
         0         0         0         0         0         0         0         0
         0         0         0         0         0         0         0         0
         0         0         0         0         0         0         0         0
         0         0         0         0         0         0         0         0
         0         0         0         0         0         0         0         0
         0         0         0         0         0         0         0         0
         0         0         0         0         0         0         0         0
         0         0         0         0         0         0         0         0
         0         0         0         0         0         0         0         0
         0         0         0         0         0         0         0         0
         0         0         0         0         0         0         0         0
         0         0         0         0         0         0         0         0
         0         0         0         0         0         0         0         0
         0         0         0         0         0         0         0         0
         0         0         0         0         0         0         0         0
         0         0         0         0         0         0         0         0
         0         0         0         0         0         0         0         0
         0         0         0         0         0         0         0         0
         0         0         0         0         0         0         0         0
         0         0         0         0         0         0         0         0
         0         0         0         0         0         0         0         0
         0         0         0         0         0         0         0         0
         0         0         0         0         0         0         0         0
         0         0         0         0         0         0         0         0
         0         0         0         0         0         0         0         0
         0         0         0         0         0         0         0         0
         0         0         0         0         0         0         0         0
         0         0         0         0         0         0         0         0
         0         0         0         0         0         0         0         0
         0         0         0         0         0         0         0         0
         0         0         0         0         0         0         0         0
         0         0         0         0         0         0         0         0
         0         0         0         0         0         0         0         0
         0         0         0         0         0         0         0         0
         0         0         0         0         0         0         0         0
         0         0         0         0         0         0         0         0
         0         0         0         0         0         0         0         0
         0         0         0         0         0         0         0         0
         0         0         0         0         0         0         0         0
         0         0         0         0         0         0         0         0
         0         0         0         0         0         0         0         0
         0         0         0         0         0         0         0         0
         0         0         0         0         0         0         0         0
         0         0         0         0         0         0         0         0
         0         0         0         0         0         0         0         0
         0         0         0         0         0         0         0         0
         0         0         0         0         0         0         0         0
         0         0         0         0         0         0         0         0
         0         0         0         0         0         0         0         0
         0         0         0         0         0         0         0         0
         0         0         0         0         0         0         0         0
         0         0         0         0         0         0         0         0
         0         0         0         0         0         0         0         0
         0         0         0         0         0         0         0         0
         0         0         0         0         0         0         0         0
         0         0         0         0         0         0         0         0
         0         0         0         0         0         0         0         0
         0         0         0         0         0         0         0         0
         0         0         0         0         0         0         0         0
         0         0         0         0         0         0         0         0
         0         0         0         0         0         0         0         0
         0         0         0         0         0         0         0         0
         0         0         0         0         0         0         0         0
         0         0         0         0         0         0         0         0
         0         0         0         0         0         0         0         0
         0         0         0         0         0         0         0         0
         0         0         0         0         0         0         0         0
         0         0         0         0         0         0         0         0
         0         0         0         0         0         0         0         0
         0         0         0         0         0         0         0         0
         0         0         0         0         0         0         0         0
         0         0         0         0         0         0         0         0
         0         0         0         0         0         0         0         0
         0         0         0         0         0         0         0         0
         0         0         0         0         0         0         0         0
         0         0         0         0         0         0         0         0
         0         0         0         0         0         0         0         0
         0         0         0         0         0         0         0         0
         0         0         0         0         0         0         0         0
         0         0         0         0         0         0         0         0
         0         0         0         0         0         0         0         0
         0         0         0         0         0         0         0         0
         0         0         0         0         0         0         0         0
         0         0         0         0         0         0         0         0
         0         0         0         0         0         0         0         0
         0         0         0         0         0         0         0         0
         0         0         0         0         0         0         0         0
         0         0         0         0         0         0         0         0
         0         0         0         0         0         0         0         0
         0         0         0         0         0         0         0         0
         0         0         0         0         0         0         0         0
         0         0         0         0         0         0         0         0
         0         0         0         0         0         0         0         0
         0         0         0         0         0         0         0         0
         0         0         0         0         0         0         0         0
         0         0         0         0         0         0         0         0
         0         0         0         0         0         0         0         0
         0         0         0         0         0         0         0         0
         0         0         0         0         0         0         0         0
         0         0         0         0         0         0         0         0
         0         0         0         0         0         0         0         0
         0         0         0         0         0         0         0         0
         0         0         0         0         0         0         0         0
         0         0         0         0         0         0         0         0
         0         0         0         0         0         0         0         0
         0         0         0         0         0         0         0         0
         0         0         0         0         0         0         0         0
         0         0         0         0         0         0         0         0
         0         0         0         0         0         0         0         0
         0         0         0         0         0         0         0         0
         0         0         0         0         0         0         0         0
         0         0         0         0         0         0         0         0
         0         0         0         0         0         0         0         0
         0         0         0         0         0         0         0         0
         0         0         0         0         0         0         0         0
         0         0         0         0         0         0         0         0
         0         0         0         0         0         0         0         0
         0         0         0         0         0         0         0         0
         0         0         0         0         0         0         0         0
         0         0         0         0         0         0         0         0
         0         0         0         0         0         0         0         0
         0         0         0         0         0         0         0         0
         0         0         0         0         0         0         0         0
         0         0         0         0         0         0         0         0
         0         0         0         0         0         0         0         0
         0         0         0         0         0         0         0         0
         0         0         0         0         0         0         0         0
         0         0         0         0         0         0         0         0
         0         0         0         0         0         0         0         0
         0         0         0         0         0         0         0         0
         0         0         0         0         0         0         0         0
         0         0         0         0         0         0         0         0
         0         0         0         0         0         0         0         0
         0         0         0         0         0         0         0         0
         0         0         0         0         0         0         0         0
         0         0         0         0         0         0         0         0
         0         0         0         0         0         0         0         0
         0         0         0         0         0         0         0         0
         0         0         0         0         0         0         0         0
         0         0         0         0         0         0         0         0
         0         0         0         0         0         0         0         0
         0         0         0         0         0         0         0         0
         0         0         0         0         0         0         0         0
         0         0         0         0         0         0         0         0
         0         0         0         0         0         0         0         0
         0         0         0         0         0         0         0         0
         0         0         0         0         0         0         0         0
         0         0         0         0         0         0         0         0
         0         0         0         0         0         0         0         0
         0         0         0         0         0         0         0         0
         0         0         0         0         0         0         0         0
         0         0         0         0         0         0         0         0
         0         0         0         0         0         0         0         0
         0         0         0         0         0         0         0         0
         0         0         0         0         0         0         0         0
         0         0         0         0         0         0         0         0
         0         0         0         0         0         0         0         0
         0         0         0         0         0         0         0         0
         0         0         0         0         0         0         0         0
         0         0         0         0         0         0         0         0
         0         0         0         0         0         0         0         0
         0         0         0         0         0         0         0         0
         0         0         0         0         0         0         0         0
         0         0         0         0         0         0         0         0
         0         0         0         0         0         0         0         0
         0         0         0         0         0         0         0         0
         0         0         0         0         0         0         0         0
         0         0         0         0         0         0         0         0
         0         0         0         0         0         0         0         0
         0         0         0         0         0         0         0         0
         0         0         0         0         0         0         0         0
         0         0         0         0         0         0         0         0
         0         0         0         0         0         0         0         0
         0         0         0         0         0         0         0         0
         0         0         0         0         0         0         0         0
         0         0         0         0         0         0         0         0
         0         0         0         0         0         0         0         0
         0         0         0         0         0         0         0         0
         0         0         0         0         0         0         0         0
         0         0         0         0         0         0         0         0
         0         0         0         0         0         0         0         0
         0         0         0         0         0         0         0         0
         0         0         0         0         0         0         0         0
         0         0         0         0         0         0         0         0
         0         0         0         0         0         0         0         0
         0         0         0         0         0         0         0         0
         0         0         0         0         0         0         0         0
         0         0         0         0         0         0         0         0
         0         0         0         0         0         0         0         0
         0         0         0         0         0         0         0         0
         0         0         0         0         0         0         0         0
         0         0         0         0         0         0         0         0
         0         0         0         0         0         0         0         0
         0         0         0         0         0         0         0         0
         0         0         0         0         0         0         0         0
         0         0         0         0         0         0         0         0
         0         0         0         0         0         0         0         0
         0         0         0         0         0         0         0         0
         0         0         0         0         0         0         0         0
         0         0         0         0         0         0         0         0
         0         0         0         0         0         0         0         0
         0         0         0         0         0         0         0         0
         0         0         0         0         0         0         0         0
         0         0         0         0         0         0         0         0
         0         0         0         0         0         0         0         0
         0         0         0         0         0         0         0         0
         0         0         0         0         0         0         0         0
         0         0         0         0         0         0         0         0
         0         0         0         0         0         0         0         0
         0         0         0         0         0         0         0         0
         0         0         0         0         0         0         0         0
         0         0         0         0         0         0         0         0
         0         0         0         0         0         0         0         0
         0         0         0         0         0         0         0         0
         0         0         0         0         0         0         0         0
         0         0         0         0         0         0         0         0
         0         0         0         0         0         0         0         0
         0         0         0         0         0         0         0         0
         0         0         0         0         0         0         0         0
         0         0         0         0         0         0         0         0
         0         0         0         0         0         0         0         0
         0         0         0         0         0         0         0         0
         0         0         0         0         0         0         0         0
         0         0         0         0         0         0         0         0
         0         0         0         0         0         0         0         0
         0         0         0         0         0         0         0         0
         0         0         0         0         0         0         0         0
         0         0         0         0         0         0         0         0
         0         0         0         0         0         0         0         0
         0         0         0         0         0         0         0         0
         0         0         0         0         0         0         0         0
         0         0         0         0         0         0         0         0
         0         0         0         0         0         0         0         0
         0         0         0         0         0         0         0         0
         0         0         0         0         0         0         0         0
         0         0         0         0         0         0         0         0
         0         0         0         0         0         0         0         0
         0         0         0         0         0         0         0         0
         0         0         0         0         0         0         0         0
         0         0         0         0         0         0         0         0
         0         0         0         0         0         0         0         0
         0         0         0         0         0         0         0         0
         0         0         0         0         0         0         0         0
         0         0         0         0         0         0         0         0
         0         0         0         0         0         0         0         0
         0         0         0         0         0         0         0         0
         0         0         0         0         0         0         0         0
         0         0         0         0         0         0         0         0
         0         0         0         0         0         0         0         0
         0         0         0         0         0         0         0         0
         0         0         0         0         0         0         0         0
         0         0         0         0         0         0         0         0
         0         0         0         0         0         0         0         0
         0         0         0         0         0         0         0         0
         0         0         0         0         0         0         0         0
         0         0         0         0         0         0         0         0
         0         0         0         0         0         0         0         0
         0         0         0         0         0         0         0         0
         0         0         0         0         0         0         0         0
         0         0         0         0         0         0         0         0
         0         0         0         0         0         0         0         0
         0         0         0         0         0         0         0         0
         0         0         0         0         0         0         0         0
         0         0         0         0         0         0         0         0
         0         0         0         0         0         0         0         0
         0         0         0         0         0         0         0         0
         0         0         0         0         0         0         0         0
         0         0         0         0         0         0         0         0
         0         0         0         0         0         0         0         0
         0         0         0         0         0         0         0         0
         0         0         0         0         0         0         0         0
         0         0         0         0         0         0         0         0
         0         0         0         0         0         0         0         0
         0         0         0         0         0         0         0         0
         0         0         0         0         0         0         0         0
         0         0         0         0         0         0         0         0
         0         0         0         0         0         0         0         0
         0         0         0         0         0         0         0         0
         0         0         0         0         0         0         0         0
         0         0         0         0         0         0         0         0
         0         0         0         0         0         0         0         0
         0         0         0         0         0         0         0         0
         0         0         0         0         0         0         0         0
         0         0         0         0         0         0         0         0
         0         0         0         0         0         0         0         0
         0         0         0         0         0         0         0         0
         0         0         0         0         0         0         0         0
         0         0         0         0         0         0         0         0
         0         0         0         0         0         0         0         0
         0         0         0         0         0         0         0         0
         0         0         0         0         0         0         0         0
         0         0         0         0         0         0         0         0
         0         0         0         0         0         0         0         0
         0         0         0         0         0         0         0         0
         0         0         0         0         0         0         0         0
         0         0         0         0         0         0         0         0
         0         0         0         0         0         0         0         0
         0         0         0         0         0         0         0         0
         0         0         0         0         0         0         0         0
         0         0         0         0         0         0         0         0
         0         0         0         0         0         0         0         0
         0         0         0         0         0         0         0         0
         0         0         0         0         0         0         0         0
         0         0         0         0         0         0         0         0
         0         0         0         0         0         0         0         0
         0         0         0         0         0         0         0         0
         0         0         0         0         0         0         0         0
         0         0         0         0         0         0         0         0
         0         0         0         0         0         0         0         0
         0         0         0         0         0         0         0         0
         0         0         0         0         0         0         0         0
         0         0         0         0         0         0         0         0
         0         0         0         0         0         0         0         0
         0         0         0         0         0         0         0         0
         0         0         0         0         0         0         0         0
         0         0         0         0         0         0         0         0
         0         0         0         0         0         0         0         0
         0         0         0         0         0         0         0         0
         0         0         0         0         0         0         0         0
         0         0         0         0         0         0         0         0
         0         0         0         0         0         0         0         0
         0         0         0         0         0         0         0         0
         0         0         0         0         0         0         0         0
         0         0         0         0         0         0         0         0
         0         0         0         0         0         0         0         0
         0         0         0         0         0         0         0         0
         0         0         0         0         0         0         0         0
         0         0         0         0         0         0         0         0
         0         0         0         0         0         0         0         0
         0         0         0         0         0         0         0         0
         0         0         0         0         0         0         0         0
         0         0         0         0         0         0         0         0
         0         0         0         0         0         0         0         0
         0         0         0         0         0         0         0         0
         0         0         0         0         0         0         0         0
         0         0         0         0         0         0         0         0
         0         0         0         0         0         0         0         0
         0         0         0         0         0         0         0         0
         0         0         0         0         0         0         0         0
         0         0         0         0         0         0         0         0
         0         0         0         0         0         0         0         0
         0         0         0         0         0         0         0         0
         0         0         0         0         0         0         0         0
         0         0         0         0         0         0         0         0
         0         0         0         0         0         0         0         0
         0         0         0         0         0         0         0         0
         0         0         0         0         0         0         0         0
         0         0         0         0         0         0         0         0
         0         0         0         0         0         0         0         0
         0         0         0         0         0         0         0         0
         0         0         0         0         0         0         0         0
         0         0         0         0         0         0         0         0
         0         0         0         0         0         0         0         0
         0         0         0         0         0         0         0         0
         0         0         0         0         0         0         0         0
         0         0         0         0         0         0         0         0
         0         0         0         0         0         0         0         0
         0         0         0         0         0         0         0         0
         0         0         0         0         0         0         0         0
         0         0         0         0         0         0         0         0
         0         0         0         0         0         0         0         0
         0         0         0         0         0         0         0         0
         0         0         0         0         0         0         0         0
         0         0         0         0         0         0         0         0
         0         0         0         0         0         0         0         0
         0         0         0         0         0         0         0         0
         0         0         0         0         0         0         0         0
         0         0         0         0         0         0         0         0
         0         0         0         0         0         0         0         0
         0         0         0         0         0         0         0         0
         0         0         0         0         0         0         0         0
         0         0         0         0         0         0         0         0
         0         0         0         0         0         0         0         0
         0         0         0         0         0         0         0         0
         0         0         0         0         0         0         0         0
         0         0         0         0         0         0         0         0
         0         0         0         0         0         0         0         0
         0         0         0         0         0         0         0         0
         0         0         0         0         0         0         0         0
         0         0         0         0         0         0         0         0
         0         0         0         0         0         0         0         0
         0         0         0         0         0         0         0         0
         0         0         0         0         0         0         0         0
         0         0         0         0         0         0         0         0
         0         0         0         0         0         0         0         0
         0         0         0         0         0         0         0         0
         0         0         0         0         0         0         0         0
         0         0         0         0         0         0         0         0
         0         0         0         0         0         0         0         0
         0         0         0         0         0         0         0         0
         0         0         0         0         0         0         0         0
         0         0         0         0         0         0         0         0
         0         0         0         0         0         0         0         0
         0         0         0         0         0         0         0         0
         0         0         0         0         0         0         0         0
         0         0         0         0         0         0         0         0
         0         0         0         0         0         0         0         0
         0         0         0         0         0         0         0         0
         0         0         0         0         0         0         0         0
         0         0         0         0         0         0         0         0
         0         0         0         0         0         0         0         0
         0         0         0         0         0         0         0         0
         0         0         0         0         0         0         0         0
         0         0         0         0         0         0         0         0
         0         0         0         0         0         0         0         0
         0         0         0         0         0         0         0         0
         0         0         0         0         0         0         0         0
         0         0         0         0         0         0         0         0
         0         0         0         0         0         0         0         0
         0         0         0         0         0         0         0         0
         0         0         0         0         0         0         0         0
         0         0         0         0         0         0         0         0
         0         0         0         0         0         0         0         0
         0         0         0         0         0         0         0         0
         0         0         0         0         0         0         0         0
         0         0         0         0         0         0         0         0
         0         0         0         0         0         0         0         0
         0         0         0         0         0         0         0         0
         0         0         0         0         0         0         0         0
         0         0         0         0         0         0         0         0
         0         0         0         0         0         0         0         0
         0         0         0         0         0         0         0         0
         0         0         0         0         0         0         0         0
         0         0         0         0         0         0         0         0
         0         0         0         0         0         0         0         0
         0         0         0         0         0         0         0         0
         0         0         0         0         0         0         0         0
         0         0         0         0         0         0         0         0
         0         0         0         0         0         0         0         0
         0         0         0         0         0         0         0         0
         0         0         0         0         0         0         0         0
         0         0         0         0         0         0         0         0
         0         0         0         0         0         0         0         0
         0         0         0         0         0         0         0         0
         0         0         0         0         0         0         0         0
         0         0         0         0         0         0         0         0
         0         0         0         0         0         0         0         0
         0         0         0         0         0         0         0         0
         0         0         0         0         0         0         0         0
         0         0         0         0         0         0         0         0
         0         0         0         0         0         0         0         0
         0         0         0         0         0         0         0         0
         0         0         0         0         0         0         0         0
         0         0         0         0         0         0         0         0
         0         0         0         0         0         0         0         0
         0         0         0         0         0         0         0         0
         0         0         0         0         0         0         0         0
         0         0         0         0         0         0         0         0
         0         0         0         0         0         0         0         0
         0         0         0         0         0         0         0         0
         0         0         0         0         0         0         0         0
         0         0         0         0         0         0         0         0
         0         0         0         0         0         0         0         0
         0         0         0         0         0         0         0         0
         0         0         0         0         0         0         0         0
         0         0         0         0         0         0         0         0
         0         0         0         0         0         0         0         0
         0         0         0         0         0         0         0         0
         0         0         0         0         0         0         0         0
         0         0         0         0         0         0         0         0
         0         0         0         0         0         0         0         0
         0         0         0         0         0         0         0         0
         0         0         0         0         0         0         0         0
         0         0         0         0         0         0         0         0
         0         0         0         0         0         0         0         0
         0         0         0         0         0         0         0         0
         0         0         0         0         0         0         0         0
         0         0         0         0         0         0         0         0
         0         0         0         0         0         0         0         0
         0         0         0         0         0         0         0         0
         0         0         0         0         0         0         0         0
         0         0         0         0         0         0         0         0
         0         0         0         0         0         0         0         0
         0         0         0         0         0         0         0         0
         0         0         0         0         0         0         0         0
         0         0         0         0         0         0         0         0
         0         0         0         0         0         0         0         0
         0         0         0         0         0         0         0         0
         0         0         0         0         0         0         0         0
         0         0         0         0         0         0         0         0
         0         0         0         0         0         0         0         0
         0         0         0         0         0         0         0         0
         0         0         0         0         0         0         0         0
         0         0         0         0         0         0         0         0
         0         0         0         0         0         0         0         0
         0         0         0         0         0         0         0         0
         0         0         0         0         0         0         0         0
         0         0         0         0         0         0         0         0
         0         0         0         0         0         0         0         0
         0         0         0         0         0         0         0         0
         0         0         0         0         0         0         0         0
         0         0         0         0         0         0         0         0
         0         0         0         0         0         0         0         0
         0         0         0         0         0         0         0         0
         0         0         0         0         0         0         0         0
         0         0         0         0         0         0         0         0
         0         0         0         0         0         0         0         0
         0         0         0         0         0         0         0         0
         0         0         0         0         0         0         0         0
         0         0         0         0         0         0         0         0
         0         0         0         0         0         0         0         0
         0         0         0         0         0         0         0         0
         0         0         0         0         0         0         0         0
         0         0         0         0         0         0         0         0
         0         0         0         0         0         0         0         0
         0         0         0         0         0         0         0         0
         0         0         0         0         0         0         0         0
         0         0         0         0         0         0         0         0
         0         0         0         0         0         0         0         0
         0         0         0         0         0         0         0         0
         0         0         0         0         0         0         0         0
         0         0         0         0         0         0         0         0
         0         0         0         0         0         0         0         0
         0         0         0         0         0         0         0         0
         0         0         0         0         0         0         0         0
         0         0         0         0         0         0         0         0
         0         0         0         0         0         0         0         0
         0         0         0         0         0         0         0         0
         0         0         0         0         0         0         0         0
         0         0         0         0         0         0         0         0
         0         0         0         0         0         0         0         0
         0         0         0         0         0         0         0         0
         0         0         0         0         0         0         0         0
         0         0         0         0         0         0         0         0
         0         0         0         0         0         0         0         0
         0         0         0         0         0         0         0         0
         0         0         0         0         0         0         0         0
         0         0         0         0         0         0         0         0
         0         0         0         0         0         0         0         0
         0         0         0         0         0         0         0         0
         0         0         0         0         0         0         0         0
         0         0         0         0         0         0         0         0
         0         0         0         0         0         0         0         0
         0         0         0         0         0         0         0         0
         0         0         0         0         0         0         0         0
         0         0         0         0         0         0         0         0
         0         0         0         0         0         0         0         0
         0         0         0         0         0         0         0         0
         0         0         0         0         0         0         0         0
         0         0         0         0         0         0         0         0
         0         0         0         0         0         0         0         0
         0         0         0         0         0         0         0         0
         0         0         0         0         0         0         0         0
         0         0         0         0         0         0         0         0
         0         0         0         0         0         0         0         0
         0         0         0         0         0         0         0         0
         0         0         0         0         0         0         0         0
         0         0         0         0         0         0         0         0
         0         0         0         0         0         0         0         0
         0         0         0         0         0         0         0         0
         0         0         0         0         0         0         0         0
         0         0         0         0         0         0         0         0
         0         0         0         0         0         0         0         0
         0         0         0         0         0         0         0         0
         0         0         0         0         0         0         0         0
         0         0         0         0         0         0         0         0
         0         0         0         0         0         0         0         0
         0         0         0         0         0         0         0         0
         0         0         0         0         0         0         0         0
         0         0         0         0         0         0         0         0
         0         0         0         0         0         0         0         0
         0         0         0         0         0         0         0         0
         0         0         0         0         0         0         0         0
         0         0         0         0         0         0         0         0
         0         0         0         0         0         0         0         0
         0         0         0         0         0         0         0         0
         0         0         0         0         0         0         0         0
         0         0         0         0         0         0         0         0
         0         0         0         0         0         0         0         0
         0         0         0         0         0         0         0         0
         0         0         0         0         0         0         0         0
         0         0         0         0         0         0         0         0
         0         0         0         0         0         0         0         0
         0         0         0         0         0         0         0         0
         0         0         0         0         0         0         0         0
         0         0         0         0         0         0         0         0
         0         0         0         0         0         0         0         0
         0         0         0         0         0         0         0         0
         0         0         0         0         0         0         0         0
         0         0         0         0         0         0         0         0
         0         0         0         0         0         0         0         0
         0         0         0         0         0         0         0         0
         0         0         0         0         0         0         0         0
         0         0         0         0         0         0         0         0
         0         0         0         0         0         0         0         0
         0         0         0         0         0         0         0         0
         0         0         0         0         0         0         0         0
         0         0         0         0         0         0         0         0
         0         0         0         0         0         0         0         0
         0         0         0         0         0         0         0         0
         0         0         0         0         0         0         0         0
         0         0         0         0         0         0         0         0
         0         0         0         0         0         0         0         0
         0         0         0         0         0         0         0         0
         0         0         0         0         0         0         0         0
         0         0         0         0         0         0         0         0
         0         0         0         0         0         0         0         0
         0         0         0         0         0         0         0         0
         0         0         0         0         0         0         0         0
         0         0         0         0         0         0         0         0
         0         0         0         0         0         0         0         0
         0         0         0         0         0         0         0         0
         0         0         0         0         0         0         0         0
         0         0         0         0         0         0         0         0
         0         0         0         0         0         0         0         0
         0         0         0         0         0         0         0         0
         0         0         0         0         0         0         0         0
         0         0         0         0         0         0         0         0
         0         0         0         0         0         0         0         0
         0         0         0         0         0         0         0         0
         0         0         0         0         0         0         0         0
         0         0         0         0         0         0         0         0
         0         0         0         0         0         0         0         0
         0         0         0         0         0         0         0         0
         0         0         0         0         0         0         0         0
         0         0         0         0         0         0         0         0
         0         0         0         0         0         0         0         0
         0         0         0         0         0         0         0         0
         0         0         0         0         0         0         0         0
         0         0         0         0         0         0         0         0
         0         0         0         0         0         0         0         0
         0         0         0         0         0         0         0         0
         0         0         0         0         0         0         0         0
         0         0         0         0         0         0         0         0
         0         0         0         0         0         0         0         0
         0         0         0         0         0         0         0         0
         0         0         0         0         0         0         0         0
         0         0         0         0         0         0         0         0
         0         0         0         0         0         0         0         0
         0         0         0         0         0         0         0         0
         0         0         0         0         0         0         0         0
         0         0         0         0         0         0         0         0
         0         0         0         0         0         0         0         0
         0         0         0         0         0         0         0         0
         0         0         0         0         0         0         0         0
         0         0         0         0         0         0         0         0
         0         0         0         0         0         0         0         0
         0         0         0         0         0         0         0         0
         0         0         0         0         0         0         0         0
         0         0         0         0         0         0         0         0
         0         0         0         0         0         0         0         0
         0         0         0         0         0         0         0         0
         0         0         0         0         0         0         0         0
         0         0         0         0         0         0         0         0
         0         0         0         0         0         0         0         0
         0         0         0         0         0         0         0         0
         0         0         0         0         0         0         0         0
         0         0         0         0         0         0         0         0
         0         0         0         0         0         0         0         0
         0         0         0         0         0         0         0         0
         0         0         0         0         0         0         0         0
         0         0         0         0         0         0         0         0
         0         0         0         0         0         0         0         0
         0         0         0         0         0         0         0         0
         0         0         0         0         0         0         0         0
         0         0         0         0         0         0         0         0
         0         0         0         0         0         0         0         0
         0         0         0         0         0         0         0         0
         0         0         0         0         0         0         0         0
         0         0         0         0         0         0         0         0
         0         0         0         0         0         0         0         0
         0         0         0         0         0         0         0         0
         0         0         0         0         0         0         0         0
         0         0         0         0         0         0         0         0
         0         0         0         0         0         0         0         0
         0         0         0         0         0         0         0         0
         0         0         0         0         0         0         0         0
         0         0         0         0         0         0         0         0
         0         0         0         0         0         0         0         0
         0         0         0         0         0         0         0         0
         0         0         0         0         0         0         0         0
         0         0         0         0         0         0         0         0
         0         0         0         0         0         0         0         0
         0         0         0         0         0         0         0         0
         0         0         0         0         0         0         0         0
         0         0         0         0         0         0         0         0
         0         0         0         0         0         0         0         0
         0         0         0         0         0         0         0         0
         0         0         0         0         0         0         0         0
         0         0         0         0         0         0         0         0
         0         0         0         0         0         0         0         0
         0         0         0         0         0         0         0         0
         0         0         0         0         0         0         0         0
         0         0         0         0         0         0         0         0
         0         0         0         0         0         0         0         0
         0         0         0         0         0         0         0         0
         0         0         0         0         0         0         0         0
         0         0         0         0         0         0         0         0
         0         0         0         0         0         0         0         0
         0         0         0         0         0         0         0         0
         0         0         0         0         0         0         0         0
         0         0         0         0         0         0         0         0
         0         0         0         0         0         0         0         0
         0         0         0         0         0         0         0         0
         0         0         0         0         0         0         0         0
         0         0         0         0         0         0         0         0
         0         0         0         0         0         0         0         0
         0         0         0         0         0         0         0         0
         0         0         0         0         0         0         0         0
         0         0         0         0         0         0         0         0
         0         0         0         0         0         0         0         0
         0         0         0         0         0         0         0         0
         0         0         0         0         0         0         0         0
         0         0         0         0         0         0         0         0
         0         0         0         0         0         0         0         0
         0         0         0         0         0         0         0         0
         0         0         0         0         0         0         0         0
         0         0         0         0         0         0         0         0
         0         0         0         0         0         0         0         0
         0         0         0         0         0         0         0         0
         0         0         0         0         0         0         0         0
         0         0         0         0         0         0         0         0
         0         0         0         0         0         0         0         0
         0         0         0         0         0         0         0         0
         0         0         0         0         0         0         0         0
         0         0         0         0         0         0         0         0
         0         0         0         0         0         0         0         0
         0         0         0         0         0         0         0         0
         0         0         0         0         0         0         0         0
         0         0         0         0         0         0         0         0
         0         0         0         0         0         0         0         0
         0         0         0         0         0         0         0         0
         0         0         0         0         0         0         0         0
         0         0         0         0         0         0         0         0
         0         0         0         0         0         0         0         0
         0         0         0         0         0         0         0         0
         0         0         0         0         0         0         0         0
         0         0         0         0         0         0         0         0
         0         0         0         0         0         0         0         0
         0         0         0         0         0         0         0         0
         0         0         0         0         0         0         0         0
         0         0         0         0         0         0         0         0
         0         0         0         0         0         0         0         0
         0         0         0         0         0         0         0         0
         0         0         0         0         0         0         0         0
         0         0         0         0         0         0         0         0
         0         0         0         0         0         0         0         0
         0         0         0         0         0         0         0         0
         0         0         0         0         0         0         0         0
         0         0         0         0         0         0         0         0
         0         0         0         0         0         0         0         0
         0         0         0         0         0         0         0         0
         0         0         0         0         0         0         0         0
         0         0         0         0         0         0         0         0
         0         0         0         0         0         0         0         0
         0         0         0         0         0         0         0         0
         0         0         0         0         0         0         0         0
         0         0         0         0         0         0         0         0
         0         0         0         0         0         0         0         0
         0         0         0         0         0         0         0         0
         0         0         0         0         0         0         0         0
         0         0         0         0         0         0         0         0
         0         0         0         0         0         0         0         0
         0         0         0         0         0         0         0         0
         0         0         0         0         0         0         0         0
         0         0         0         0         0         0         0         0
         0         0         0         0         0         0         0         0
         0         0         0         0         0         0         0         0
         0         0         0         0         0         0         0         0
         0         0         0         0         0         0         0         0
         0         0         0         0         0         0         0         0
         0         0         0         0         0         0         0         0
         0         0         0         0         0         0         0         0
         0         0         0         0         0         0         0         0
         0         0         0         0         0         0         0         0
         0         0         0         0         0         0         0         0
         0         0         0         0         0         0         0         0
         0         0         0         0         0         0         0         0
         0         0         0         0         0         0         0         0
         0         0         0         0         0         0         0         0
         0         0         0         0         0         0         0         0
         0         0         0         0         0         0         0         0
         0         0         0         0         0         0         0         0
         0         0         0         0         0         0         0         0
         0         0         0         0         0         0         0         0
         0         0         0         0         0         0         0         0
         0         0         0         0         0         0         0         0
         0         0         0         0         0         0         0         0
         0         0         0         0         0         0         0         0
         0         0         0         0         0         0         0         0
         0         0         0         0         0         0         0         0
         0         0         0         0         0         0         0         0
         0         0         0         0         0         0         0         0
         0         0         0         0         0         0         0         0
         0         0         0         0         0         0         0         0
         0         0         0         0         0         0         0         0
         0         0         0         0         0         0         0         0
         0         0         0         0         0         0         0         0
         0         0         0         0         0         0         0         0
         0         0         0         0         0         0         0         0
         0         0         0         0         0         0         0         0
         0         0         0         0         0         0         0         0
         0         0         0         0         0         0         0         0
         0         0         0         0         0         0         0         0
         0         0         0         0         0         0         0         0
         0         0         0         0         0         0         0         0
         0         0         0         0         0         0         0         0
         0         0         0         0         0         0         0         0
         0         0         0         0         0         0         0         0
         0         0         0         0         0         0         0         0
         0         0         0         0         0         0         0         0
         0         0         0         0         0         0         0         0
         0         0         0         0         0         0         0         0
         0         0         0         0         0         0         0         0
         0         0         0         0         0         0         0         0
         0         0         0         0         0         0         0         0
         0         0         0         0         0         0         0         0
         0         0         0         0         0         0         0         0
         0         0         0         0         0         0         0         0
         0         0         0         0         0         0         0         0
         0         0         0         0         0         0         0         0
         0         0         0         0         0         0         0         0
         0         0         0         0         0         0         0         0
         0         0         0         0         0         0         0         0
         0         0         0         0         0         0         0         0
         0         0         0         0         0         0         0         0
         0         0         0         0         0         0         0         0
         0         0         0         0         0         0         0         0
         0         0         0         0         0         0         0         0
         0         0         0         0         0         0         0         0
         0         0         0         0         0         0         0         0
         0         0         0         0         0         0         0         0
         0         0         0         0         0         0         0         0
         0         0         0         0         0         0         0         0
         0         0         0         0         0         0         0         0
         0         0         0         0         0         0         0         0
         0         0         0         0         0         0         0         0
         0         0         0         0         0         0         0         0
         0         0         0         0         0         0         0         0
         0         0         0         0         0         0         0         0
         0         0         0         0         0         0         0         0
         0         0         0         0         0         0         0         0
         0         0         0         0         0         0         0         0
         0         0         0         0         0         0         0         0
         0         0         0         0         0         0         0         0
         0         0         0         0         0         0         0         0
         0         0         0         0         0         0         0         0
         0         0         0         0         0         0         0         0
         0         0         0         0         0         0         0         0
         0         0         0         0         0         0         0         0
         0         0         0         0         0         0         0         0
         0         0         0         0         0         0         0         0
         0         0         0         0         0         0         0         0
         0         0         0         0         0         0         0         0
         0         0         0         0         0         0         0         0
         0         0         0         0         0         0         0         0
         0         0         0         0         0         0         0         0
         0         0         0         0         0         0         0         0
         0         0         0         0         0         0         0         0
         0         0         0         0         0         0         0         0
         0         0         0         0         0         0         0         0
         0         0         0         0         0         0         0         0
         0         0         0         0         0         0         0         0
         0         0         0         0         0         0         0         0
         0         0         0         0         0         0         0         0
         0         0         0         0         0         0         0         0
         0         0         0         0         0         0         0         0
         0         0         0         0         0         0         0         0
         0         0         0         0         0         0         0         0
         0         0         0         0         0         0         0         0
         0         0         0         0         0         0         0         0
         0         0         0         0         0         0         0         0
         0         0         0         0         0         0         0         0
         0         0         0         0         0         0         0         0
         0         0         0         0         0         0         0         0
         0         0         0         0         0         0         0         0
         0         0         0         0         0         0         0         0
         0         0         0         0         0         0         0         0
         0         0         0         0         0         0         0         0
         0         0         0         0         0         0         0         0
         0         0         0         0         0         0         0         0
         0         0         0         0         0         0         0         0
         0         0         0         0         0         0         0         0
         0         0         0         0         0         0         0         0
         0         0         0         0         0         0         0         0
         0         0         0         0         0         0         0         0
         0         0         0         0         0         0         0         0
         0         0         0         0         0         0         0         0
         0         0         0         0         0         0         0         0
         0         0         0         0         0         0         0         0
         0         0         0         0         0         0         0         0
         0         0         0         0         0         0         0         0
         0         0         0         0         0         0         0         0
         0         0         0         0         0         0         0         0
         0         0         0         0         0         0         0         0
         0         0         0         0         0         0         0         0
         0         0         0         0         0         0         0         0
         0         0         0         0         0         0         0         0
         0         0         0         0         0         0         0         0
         0         0         0         0         0         0         0         0
         0         0         0         0         0         0         0         0
         0         0         0         0         0         0         0         0
         0         0         0         0         0         0         0         0
         0         0         0         0         0         0         0         0
         0         0         0         0         0         0         0         0
         0         0         0         0         0         0         0         0
         0         0         0         0         0         0         0         0
         0         0         0         0         0         0         0         0
         0         0         0         0         0         0         0         0
         0         0         0         0         0         0         0         0
         0         0         0         0         0         0         0         0
         0         0         0         0         0         0         0         0
         0         0         0         0         0         0         0         0
         0         0         0         0         0         0         0         0
         0         0         0         0         0         0         0         0
         0         0         0         0         0         0         0         0
         0         0         0         0         0         0         0         0
         0         0         0         0         0         0         0         0
         0         0         0         0         0         0         0         0
         0         0         0         0         0         0         0         0
         0         0         0         0         0         0         0         0
         0         0         0         0         0         0         0         0
         0         0         0         0         0         0         0         0
         0         0         0         0         0         0         0         0
         0         0         0         0         0         0         0         0
         0         0         0         0         0         0         0         0
         0         0         0         0         0         0         0         0
         0         0         0         0         0         0         0         0
         0         0         0         0         0         0         0         0
         0         0         0         0         0         0         0         0
         0         0         0         0         0         0         0         0
         0         0         0         0         0         0         0         0
         0         0         0         0         0         0         0         0
         0         0         0         0         0         0         0         0
         0         0         0         0         0         0         0         0
         0         0         0         0         0         0         0         0
         0         0         0         0         0         0         0         0
         0         0         0         0         0         0         0         0
         0         0         0         0         0         0         0         0
         0         0         0         0         0         0         0         0
         0         0         0         0         0         0         0         0
         0         0         0         0         0         0         0         0
         0         0         0         0         0         0         0         0
         0         0         0         0         0         0         0         0
         0         0         0         0         0         0         0         0
         0         0         0         0         0         0         0         0
         0         0         0         0         0         0         0         0
         0         0         0         0         0         0         0         0
         0         0         0         0         0         0         0         0
         0         0         0         0         0         0         0         0
         0         0         0         0         0         0         0         0
         0         0         0         0         0         0         0         0
         0         0         0         0         0         0         0         0
         0         0         0         0         0         0         0         0
         0         0         0         0         0         0         0         0
         0         0         0         0         0         0         0         0
         0         0         0         0         0         0         0         0
         0         0         0         0         0         0         0         0
         0         0         0         0         0         0         0         0
         0         0         0         0         0         0         0         0
         0         0         0         0         0         0         0         0
         0         0         0         0         0         0         0         0
         0         0         0         0         0         0         0         0
         0         0         0         0         0         0         0         0
         0         0         0         0         0         0         0         0
         0         0         0         0         0         0         0         0
         0         0         0         0         0         0         0         0
         0         0         0         0         0         0         0         0
         0         0         0         0         0         0         0         0
         0         0         0         0         0         0         0         0
         0         0         0         0         0         0         0         0
         0         0         0         0         0         0         0         0
         0         0         0         0         0         0         0         0
         0         0         0         0         0         0         0         0
         0         0         0         0         0         0         0         0
         0         0         0         0         0         0         0         0
         0         0         0         0         0         0         0         0
         0         0         0         0         0         0         0         0
         0         0         0         0         0         0         0         0
         0         0         0         0         0         0         0         0
         0         0         0         0         0         0         0         0
         0         0         0         0         0         0         0         0
         0         0         0         0         0         0         0         0
         0         0         0         0         0         0         0         0
         0         0         0         0         0         0         0         0
         0         0         0         0         0         0         0         0
         0         0         0         0         0         0         0         0
         0         0         0         0         0         0         0         0
         0         0         0         0         0         0         0         0
         0         0         0         0         0         0         0         0
         0         0         0         0         0         0         0         0
         0         0         0         0         0         0         0         0
         0         0         0         0         0         0         0         0
         0         0         0         0         0         0         0         0
         0         0         0         0         0         0         0         0
         0         0         0         0         0         0         0         0
         0         0         0         0         0         0         0         0
         0         0         0         0         0         0         0         0
         0         0         0         0         0         0         0         0
         0         0         0         0         0         0         0         0
         0         0         0         0         0         0         0         0
         0         0         0         0         0         0         0         0
         0         0         0         0         0         0         0         0
         0         0         0         0         0         0         0         0
         0         0         0         0         0         0         0         0
         0         0         0         0         0         0         0         0
         0         0         0         0         0         0         0         0
         0         0         0         0         0         0         0         0
         0         0         0         0         0         0         0         0
         0         0         0         0         0         0         0         0
         0         0         0         0         0         0         0         0
         0         0         0         0         0         0         0         0
         0         0         0         0         0         0         0         0
         0         0         0         0         0         0         0         0
         0         0         0         0         0         0         0         0
         0         0         0         0         0         0         0         0
         0         0         0         0         0         0         0         0
         0         0         0         0         0         0         0         0
         0         0         0         0         0         0         0         0
         0         0         0         0         0         0         0         0
         0         0         0         0         0         0         0         0
         0         0         0         0         0         0         0         0
         0         0         0         0         0         0         0         0
         0         0         0         0         0         0         0         0
         0         0         0         0         0         0         0         0
         0         0         0         0         0         0         0         0
         0         0         0         0         0         0         0         0
         0         0         0         0         0         0         0         0
         0         0         0         0         0         0         0         0
         0         0         0         0         0         0         0         0
         0         0         0         0         0         0         0         0
         0         0         0         0         0         0         0         0
         0         0         0         0         0         0         0         0
         0         0         0         0         0         0         0         0
         0         0         0         0         0         0         0         0
         0         0         0         0         0         0         0         0
         0         0         0         0         0         0         0         0
         0         0         0         0         0         0         0         0
         0         0         0         0         0         0         0         0
         0         0         0         0         0         0         0         0
         0         0         0         0         0         0         0         0
         0         0         0         0         0         0         0         0
         0         0         0         0         0         0         0         0
         0         0         0         0         0         0         0         0
         0         0         0         0         0         0         0         0
         0         0         0         0         0         0         0         0
         0         0         0         0         0         0         0         0
         0         0         0         0         0         0         0         0
         0         0         0         0         0         0         0         0
         0         0         0         0         0         0         0         0
         0         0         0         0         0         0         0         0
         0         0         0         0         0         0         0         0
         0         0         0         0         0         0         0         0
         0         0         0         0         0         0         0         0
         0         0         0         0         0         0         0         0
         0         0         0         0         0         0         0         0
         0         0         0         0         0         0         0         0
         0         0         0         0         0         0         0         0
         0         0         0         0         0         0         0         0
         0         0         0         0         0         0         0         0
         0         0         0         0         0         0         0         0
         0         0         0         0         0         0         0         0
         0         0         0         0         0         0         0         0
         0         0         0         0         0         0         0         0
         0         0         0         0         0         0         0         0
         0         0         0         0         0         0         0         0
         0         0         0         0         0         0         0         0
         0         0         0         0         0         0         0         0
         0         0         0         0         0         0         0         0
         0         0         0         0         0         0         0         0
         0         0         0         0         0         0         0         0
         0         0         0         0         0         0         0         0
         0         0         0         0         0         0         0         0
         0         0         0         0         0         0         0         0
         0         0         0         0         0         0         0         0
         0         0         0         0         0         0         0         0
         0         0         0         0         0         0         0         0
         0         0         0         0         0         0         0         0
         0         0         0         0         0         0         0         0
         0         0         0         0         0         0         0         0
         0         0         0         0         0         0         0         0
         0         0         0         0         0         0         0         0
         0         0         0         0         0         0         0         0
         0         0         0         0         0         0         0         0
         0         0         0         0         0         0         0         0
         0         0         0         0         0         0         0         0
         0         0         0         0         0         0         0         0
         0         0         0         0         0         0         0         0
         0         0         0         0         0         0         0         0
         0         0         0         0         0         0         0         0
         0         0         0         0         0         0         0         0
         0         0         0         0         0         0         0         0
         0         0         0         0         0         0         0         0
         0         0         0         0         0         0         0         0
         0         0         0         0         0         0         0         0
         0         0         0         0         0         0         0         0
         0         0         0         0         0         0         0         0
         0         0         0         0         0         0         0         0
         0         0         0         0         0         0         0         0
         0         0         0         0         0         0         0         0
         0         0         0         0         0         0         0         0
         0         0         0         0         0         0         0         0
         0         0         0         0         0         0         0         0
         0         0         0         0         0         0         0         0
         0         0         0         0         0         0         0         0
         0         0         0         0         0         0         0         0
         0         0         0         0         0         0         0         0
         0         0         0         0         0         0         0         0
         0         0         0         0         0         0         0         0
         0         0         0         0         0         0         0         0
         0         0         0         0         0         0         0         0
         0         0         0         0         0         0         0         0
         0         0         0         0         0         0         0         0
         0         0         0         0         0         0         0         0
         0         0         0         0         0         0         0         0
         0         0         0         0         0         0         0         0
         0         0         0         0         0         0         0         0
         0         0         0         0         0         0         0         0
         0         0         0         0         0         0         0         0
         0         0         0         0         0         0         0         0
         0         0         0         0         0         0         0         0
         0         0         0         0         0         0         0         0
         0         0         0         0         0         0         0         0
         0         0         0         0         0         0         0         0
         0         0         0         0         0         0         0         0
         0         0         0         0         0         0         0         0
         0         0         0         0         0         0         0         0
         0         0         0         0         0         0         0         0
         0         0         0         0         0         0         0         0
         0         0         0         0         0         0         0         0
         0         0         0         0         0         0         0         0
         0         0         0         0         0         0         0         0
         0         0         0         0         0         0         0         0
         0         0         0         0         0         0         0         0
         0         0         0         0         0         0         0         0
         0         0         0         0         0         0         0         0
         0         0         0         0         0         0         0         0
         0         0         0         0         0         0         0         0
         0         0         0         0         0         0         0         0
         0         0         0         0         0         0         0         0
         0         0         0         0         0         0         0         0
         0         0         0         0         0         0         0         0
         0         0         0         0         0         0         0         0
         0         0         0         0         0         0         0         0
         0         0         0         0         0         0         0         0
         0         0         0         0         0         0         0         0
         0         0         0         0         0         0         0         0
         0         0         0         0         0         0         0         0
         0         0         0         0         0         0         0         0
         0         0         0         0         0         0         0         0
         0         0         0         0         0         0         0         0
         0         0         0         0         0         0         0         0
         0         0         0         0         0         0         0         0
         0         0         0         0         0         0         0         0
         0         0         0         0         0         0         0         0
         0         0         0         0         0         0         0         0
         0         0         0         0         0         0         0         0
         0         0         0         0         0         0         0         0
         0         0         0         0         0         0         0         0
         0         0         0         0         0         0         0         0
         0         0         0         0         0         0         0         0
         0         0         0         0         0         0         0         0
         0         0         0         0         0         0         0         0
         0         0         0         0         0         0         0         0
         0         0         0         0         0         0         0         0
         0         0         0         0         0         0         0         0
         0         0         0         0         0         0         0         0
         0         0         0         0         0         0         0         0
         0         0         0         0         0         0         0         0
         0         0         0         0         0         0         0         0
         0         0         0         0         0         0         0         0
         0         0         0         0         0         0         0         0
         0         0         0         0         0         0         0         0
         0         0         0         0         0         0         0         0
         0         0         0         0         0         0         0         0
         0         0         0         0         0         0         0         0
         0         0         0         0         0         0         0         0
         0         0         0         0         0         0         0         0
         0         0         0         0         0         0         0         0
         0         0         0         0         0         0         0         0
         0         0         0         0         0         0         0         0
         0         0         0         0         0         0         0         0
         0         0         0         0         0         0         0         0
         0         0         0         0         0         0         0         0
         0         0         0         0         0         0         0         0
         0         0         0         0         0         0         0         0
         0         0         0         0         0         0         0         0
         0         0         0         0         0         0         0         0
         0         0         0         0         0         0         0         0
         0         0         0         0         0         0         0         0
         0         0         0         0         0         0         0         0
         0         0         0         0         0         0         0         0
         0         0         0         0         0         0         0         0
         0         0         0         0         0         0         0         0
         0         0         0         0         0         0         0         0
         0         0         0         0         0         0         0         0
         0         0         0         0         0         0         0         0
         0         0         0         0         0         0         0         0
         0         0         0         0         0         0         0         0
         0         0         0         0         0         0         0         0
         0         0         0         0         0         0         0         0
         0         0         0         0         0         0         0         0
         0         0         0         0         0         0         0         0
         0         0         0         0         0         0         0         0
         0         0         0         0         0         0         0         0
         0         0         0         0         0         0         0         0
         0         0         0         0         0         0         0         0
         0         0         0         0         0         0         0         0
         0         0         0         0         0         0         0         0
         0         0         0         0         0         0         0         0
         0         0         0         0         0         0         0         0
         0         0         0         0         0         0         0         0
         0         0         0         0         0         0         0         0
         0         0         0         0         0         0         0         0
         0         0         0         0         0         0         0         0
         0         0         0         0         0         0         0         0
         0         0         0         0         0         0         0         0
         0         0         0         0         0         0         0         0
         0         0         0         0         0         0         0         0
         0         0         0         0         0         0         0         0
         0         0         0         0         0         0         0         0
         0         0         0         0         0         0         0         0
         0         0         0         0         0         0         0         0
         0         0         0         0         0         0         0         0
         0         0         0         0         0         0         0         0
         0         0         0         0         0         0         0         0
         0         0         0         0         0         0         0         0
         0         0         0         0         0         0         0         0
         0         0         0         0         0         0         0         0
         0         0         0         0         0         0         0         0
         0         0         0         0         0         0         0         0
         0         0         0         0         0         0         0         0
         0         0         0         0         0         0         0         0
         0         0         0         0         0         0         0         0
         0         0         0         0         0         0         0         0
         0         0         0         0         0         0         0         0
         0         0         0         0         0         0         0         0
         0         0         0         0         0         0         0         0
         0         0         0         0         0         0         0         0
         0         0         0         0         0         0         0         0
         0         0         0         0         0         0         0         0
         0         0         0         0         0         0         0         0
         0         0         0         0         0         0         0         0
         0         0         0         0         0         0         0         0
         0         0         0         0         0         0         0         0
         0         0         0         0         0         0         0         0
         0         0         0         0         0         0         0         0
         0         0         0         0         0         0         0         0
         0         0         0         0         0         0         0         0
         0         0         0         0         0         0         0         0
         0         0         0         0         0         0         0         0
         0         0         0         0         0         0         0         0
         0         0         0         0         0         0         0         0
         0         0         0         0         0         0         0         0
         0         0         0         0         0         0         0         0
         0         0         0         0         0         0         0         0
         0         0         0         0         0         0         0         0
         0         0         0         0         0         0         0         0
         0         0         0         0         0         0         0         0
         0         0         0         0         0         0         0         0
         0         0         0         0         0         0         0         0
         0         0         0         0         0         0         0         0
         0         0         0         0         0         0         0         0
         0         0         0         0         0         0         0         0
         0         0         0         0         0         0         0         0
         0         0         0         0         0         0         0         0
         0         0         0         0         0         0         0         0
         0         0         0         0         0         0         0         0
         0         0         0         0         0         0         0         0
         0         0         0         0         0         0         0         0
         0         0         0         0         0         0         0         0
         0         0         0         0         0         0         0         0
         0         0         0         0         0         0         0         0
         0         0         0         0         0         0         0         0
         0         0         0         0         0         0         0         0
         0         0         0         0         0         0         0         0
         0         0         0         0         0         0         0         0
         0         0         0         0         0         0         0         0
         0         0         0         0         0         0         0         0
         0         0         0         0         0         0         0         0
         0         0         0         0         0         0         0         0
         0         0         0         0         0         0         0         0
         0         0         0         0         0         0         0         0
         0         0         0         0         0         0         0         0
         0         0         0         0         0         0         0         0
         0         0         0         0         0         0         0         0
         0         0         0         0         0         0         0         0
         0         0         0         0         0         0         0         0
         0         0         0         0         0         0         0         0
         0         0         0         0         0         0         0         0
         0         0         0         0         0         0         0         0
         0         0         0         0         0         0         0         0
         0         0         0         0         0         0         0         0
         0         0         0         0         0         0         0         0
         0         0         0         0         0         0         0         0
         0         0         0         0         0         0         0         0
         0         0         0         0         0         0         0         0
         0         0         0         0         0         0         0         0
         0         0         0         0         0         0         0         0
         0         0         0         0         0         0         0         0
         0         0         0         0         0         0         0         0
         0         0         0         0         0         0         0         0
         0         0         0         0         0         0         0         0
         0         0         0         0         0         0         0         0
         0         0         0         0         0         0         0         0
         0         0         0         0         0         0         0         0
         0         0         0         0         0         0         0         0
         0         0         0         0         0         0         0         0
         0         0         0         0         0         0         0         0
         0         0         0         0         0         0         0         0
         0         0         0         0         0         0         0         0
         0         0         0         0         0         0         0         0
         0         0         0         0         0         0         0         0
         0         0         0         0         0         0         0         0
         0         0         0         0         0         0         0         0
         0         0         0         0         0         0         0         0
         0         0         0         0         0         0         0         0
         0         0         0         0         0         0         0         0
         0         0         0         0         0         0         0         0
         0         0         0         0         0         0         0         0
         0         0         0         0         0         0         0         0
         0         0         0         0         0         0         0         0
         0         0         0         0         0         0         0         0
         0         0         0         0         0         0         0         0
         0         0         0         0         0         0         0         0
         0         0         0         0         0         0         0         0
         0         0         0         0         0         0         0         0
         0         0         0         0         0         0         0         0
         0         0         0         0         0         0         0         0
         0         0         0         0         0         0         0         0
         0         0         0         0         0         0         0         0
         0         0         0         0         0         0         0         0
         0         0         0         0         0         0         0         0
         0         0         0         0         0         0         0         0
         0         0         0         0         0         0         0         0
         0         0         0         0         0         0         0         0
         0         0         0         0         0         0         0         0
         0         0         0         0         0         0         0         0
         0         0         0         0         0         0         0         0
         0         0         0         0         0         0         0         0
         0         0         0         0         0         0         0         0
         0         0         0         0         0         0         0         0
         0         0         0         0         0         0         0         0
         0         0         0         0         0         0         0         0
         0         0         0         0         0         0         0         0
         0         0         0         0         0         0         0         0
         0         0         0         0         0         0         0         0
         0         0         0         0         0         0         0         0
         0         0         0         0         0         0         0         0
         0         0         0         0         0         0         0         0
         0         0         0         0         0         0         0         0
         0         0         0         0         0         0         0         0
         0         0         0         0         0         0         0         0
         0         0         0         0         0         0         0         0
         0         0         0         0         0         0         0         0
         0         0         0         0         0         0         0         0
         0         0         0         0         0         0         0         0
         0         0         0         0         0         0         0         0
         0         0         0         0         0         0         0         0
         0         0         0         0         0         0         0         0
         0         0         0         0         0         0         0         0
         0         0         0         0         0         0         0         0
         0         0         0         0         0         0         0         0
         0         0         0         0         0         0         0         0
         0         0         0         0         0         0         0         0
         0         0         0         0         0         0         0         0
         0         0         0         0         0         0         0         0
         0         0         0         0         0         0         0         0
         0         0         0         0         0         0         0         0
         0         0         0         0         0         0         0         0
         0         0         0         0         0         0         0         0
         0         0         0         0         0         0         0         0
         0         0         0         0         0         0         0         0
         0         0         0         0         0         0         0         0
         0         0         0         0         0         0         0         0
         0         0         0         0         0         0         0         0
         0         0         0         0         0         0         0         0
         0         0         0         0         0         0         0         0
         0         0         0         0         0         0         0         0
         0         0         0         0         0         0         0         0
         0         0         0         0         0         0         0         0
         0         0         0         0         0         0         0         0
         0         0         0         0         0         0         0         0
         0         0         0         0         0         0         0         0
         0         0         0         0         0         0         0         0
         0         0         0         0         0         0         0         0
         0         0         0         0         0         0         0         0
         0         0         0         0         0         0         0         0
         0         0         0         0         0         0         0         0
         0         0         0         0         0         0         0         0
         0         0         0         0         0         0         0         0
         0         0         0         0         0         0         0         0
         0         0         0         0         0         0         0         0
         0         0         0         0         0         0         0         0
         0         0         0         0         0         0         0         0
         0         0         0         0         0         0         0         0
         0         0         0         0         0         0         0         0
         0         0         0         0         0         0         0         0
         0         0         0         0         0         0         0         0
         0         0         0         0         0         0         0         0
         0         0         0         0         0         0         0         0
         0         0         0         0         0         0         0         0
         0         0         0         0         0         0         0         0
         0         0         0         0         0         0         0         0
         0         0         0         0         0         0         0         0
         0         0         0         0         0         0         0         0
         0         0         0         0         0         0         0         0
         0         0         0         0         0         0         0         0
         0         0         0         0         0         0         0         0
         0         0         0         0         0         0         0         0
         0         0         0         0         0         0         0         0
         0         0         0         0         0         0         0         0
         0         0         0         0         0         0         0         0
         0         0         0         0         0         0         0         0
         0         0         0         0         0         0         0         0
         0         0         0         0         0         0         0         0
         0         0         0         0         0         0         0         0
         0         0         0         0         0         0         0         0
         0         0         0         0         0         0         0         0
         0         0         0         0         0         0         0         0
         0         0         0         0         0         0         0         0
         0         0         0         0         0         0         0         0
         0         0         0         0         0         0         0         0
         0         0         0         0         0         0         0         0
         0         0         0         0         0         0         0         0
         0         0         0         0         0         0         0         0
         0         0         0         0         0         0         0         0
         0         0         0         0         0         0         0         0
         0         0         0         0         0         0         0         0
         0         0         0         0         0         0         0         0
         0         0         0         0         0         0         0         0
         0         0         0         0         0         0         0         0
         0         0         0         0         0         0         0         0
         0         0         0         0         0         0         0         0
         0         0         0         0         0         0         0         0
         0         0         0         0         0         0         0         0
         0         0         0         0         0         0         0         0
         0         0         0         0         0         0         0         0
         0         0         0         0         0         0         0         0
         0         0         0         0         0         0         0         0
         0         0         0         0         0         0         0         0
         0         0         0         0         0         0         0         0
         0         0         0         0         0         0         0         0
         0         0         0         0         0         0         0         0
         0         0         0         0         0         0         0         0
         0         0         0         0         0         0         0         0
         0         0         0         0         0         0         0         0
         0         0         0         0         0         0         0         0
         0         0         0         0         0         0         0         0
         0         0         0         0         0         0         0         0
         0         0         0         0         0         0         0         0
         0         0         0         0         0         0         0         0
         0         0         0         0         0         0         0         0
         0         0         0         0         0         0         0         0
         0         0         0         0         0         0         0         0
         0         0         0         0         0         0         0         0
         0         0         0         0         0         0         0         0
         0         0         0         0         0         0         0         0
         0         0         0         0         0         0         0         0
         0         0         0         0         0         0         0         0
         0         0         0         0         0         0         0         0
         0         0         0         0         0         0         0         0
         0         0         0         0         0         0         0         0
         0         0         0         0         0         0         0         0
         0         0         0         0         0         0         0         0
         0         0         0         0         0         0         0         0
         0         0         0         0         0         0         0         0
         0         0         0         0         0         0         0         0
         0         0         0         0         0         0         0         0
         0         0         0         0         0         0         0         0
         0         0         0         0         0         0         0         0
         0         0         0         0         0         0         0         0
         0         0         0         0         0         0         0         0
         0         0         0         0         0         0         0         0
         0         0         0         0         0         0         0         0
         0         0         0         0         0         0         0         0
         0         0         0         0         0         0         0         0
         0         0         0         0         0         0         0         0
         0         0         0         0         0         0         0         0
         0         0         0         0         0         0         0         0
         0         0         0         0         0         0         0         0
         0         0         0         0         0         0         0         0
         0         0         0         0         0         0         0         0
         0         0         0         0         0         0         0         0
         0         0         0         0         0         0         0         0
         0         0         0         0         0         0         0         0
         0         0         0         0         0         0         0         0
         0         0         0         0         0         0         0         0
         0         0         0         0         0         0         0         0
         0         0         0         0         0         0         0         0
         0         0         0         0         0         0         0         0
         0         0         0         0         0         0         0         0
         0         0         0         0         0         0         0         0
         0         0         0         0         0         0         0         0
         0         0         0         0         0         0         0         0
         0         0         0         0         0         0         0         0
         0         0         0         0         0         0         0         0
         0         0         0         0         0         0         0         0
         0         0         0         0         0         0         0         0
         0         0         0         0         0         0         0         0
         0         0         0         0         0         0         0         0
         0         0         0         0         0         0         0         0
         0         0         0         0         0         0         0         0
         0         0         0         0         0         0         0         0
         0         0         0         0         0         0         0         0
         0         0         0         0         0         0         0         0
         0         0         0         0         0         0         0         0
         0         0         0         0         0         0         0         0
         0         0         0         0         0         0         0         0
         0         0         0         0         0         0         0         0
         0         0         0         0         0         0         0         0
         0         0         0         0         0         0         0         0
         0         0         0         0         0         0         0         0
         0         0         0         0         0         0         0         0
         0         0         0         0         0         0         0         0
         0         0         0         0         0         0         0         0
         0         0         0         0         0         0         0         0
         0         0         0         0         0         0         0         0
         0         0         0         0         0         0         0         0
         0         0         0         0         0         0         0         0
         0         0         0         0         0         0         0         0
         0         0         0         0         0         0         0         0
         0         0         0         0         0         0         0         0
         0         0         0         0         0         0         0         0
         0         0         0         0         0         0         0         0
         0         0         0         0         0         0         0         0
         0         0         0         0         0         0         0         0
         0         0         0         0         0         0         0         0
         0         0         0         0         0         0         0         0
         0         0         0         0         0         0         0         0
         0         0         0         0         0         0         0         0
         0         0         0         0         0         0         0         0
         0         0         0         0         0         0         0         0
         0         0         0         0         0         0         0         0
         0         0         0         0         0         0         0         0
         0         0         0         0         0         0         0         0
         0         0         0         0         0         0         0         0
         0         0         0         0         0         0         0         0
         0         0         0         0         0         0         0         0
         0         0         0         0         0         0         0         0
         0         0         0         0         0         0         0         0
         0         0         0         0         0         0         0         0
         0         0         0         0         0         0         0         0
         0         0         0         0         0         0         0         0
         0         0         0         0         0         0         0         0
         0         0         0         0         0         0         0         0
         0         0         0         0         0         0         0         0
         0         0         0         0         0         0         0         0
         0         0         0         0         0         0         0         0
         0         0         0         0         0         0         0         0
         0         0         0         0         0         0         0         0
         0         0         0         0         0         0         0         0
         0         0         0         0         0         0         0         0
         0         0         0         0         0         0         0         0
         0         0         0         0         0         0         0         0
         0         0         0         0         0         0         0         0
         0         0         0         0         0         0         0         0
         0         0         0         0         0         0         0         0
         0         0         0         0         0         0         0         0
         0         0         0         0         0         0         0         0
         0         0         0         0         0         0         0         0
         0         0         0         0         0         0         0         0
         0         0         0         0         0         0         0         0
         0         0         0         0         0         0         0         0
         0         0         0         0         0         0         0         0
         0         0         0         0         0         0         0         0
         0         0         0         0         0         0         0         0
         0         0         0         0         0         0         0         0
         0         0         0         0         0         0         0         0
         0         0         0         0         0         0         0         0
         0         0         0         0         0         0         0         0
         0         0         0         0         0         0         0         0
         0         0         0         0         0         0         0         0
         0         0         0         0         0         0         0         0
         0         0         0         0         0         0         0         0
         0         0         0         0         0         0         0         0
         0         0         0         0         0         0         0         0
         0         0         0         0         0         0         0         0
         0         0         0         0         0         0         0         0
         0         0         0         0         0         0         0         0
         0         0         0         0         0         0         0         0
         0         0         0         0         0         0         0         0
         0         0         0         0         0         0         0         0
         0         0         0         0         0         0         0         0
         0         0         0         0         0         0         0         0
         0         0         0         0         0         0         0         0
         0         0         0         0         0         0         0         0
         0         0         0         0         0         0         0         0
         0         0         0         0         0         0         0         0
         0         0         0         0         0         0         0         0
         0         0         0         0         0         0         0         0
         0         0         0         0         0         0         0         0
         0         0         0         0         0         0         0         0
         0         0         0         0         0         0         0         0
         0         0         0         0         0         0         0         0
         0         0         0         0         0         0         0         0
         0         0         0         0         0         0         0         0
         0         0         0         0         0         0         0         0
         0         0         0         0         0         0         0         0
         0         0         0         0         0         0         0         0
         0         0         0         0         0         0         0         0
         0         0         0         0         0         0         0         0
         0         0         0         0         0         0         0         0
         0         0         0         0         0         0         0         0
         0         0         0         0         0         0         0         0
         0         0         0         0         0         0         0         0
         0         0         0         0         0         0         0         0
         0         0         0         0         0         0         0         0
         0         0         0         0         0         0         0         0
         0         0         0         0         0         0         0         0
         0         0         0         0         0         0         0         0
         0         0         0         0         0         0         0         0
         0         0         0         0         0         0         0         0
         0         0         0         0         0         0         0         0
         0         0         0         0         0         0         0         0
         0         0         0         0         0         0         0         0
         0         0         0         0         0         0         0         0
         0         0         0         0         0         0         0         0
         0         0         0         0         0         0         0         0
         0         0         0         0         0         0         0         0
         0         0         0         0         0         0         0         0
         0         0         0         0         0         0         0         0
         0         0         0         0         0         0         0         0
         0         0         0         0         0         0         0         0
         0         0         0         0         0         0         0         0
         0         0         0         0         0         0         0         0
         0         0         0         0         0         0         0         0
         0         0         0         0         0         0         0         0
         0         0         0         0         0         0         0         0
         0         0         0         0         0         0         0         0
         0         0         0         0         0         0         0         0
         0         0         0         0         0         0         0         0
         0         0         0         0         0         0         0         0
         0         0         0         0         0         0         0         0
         0         0         0         0         0         0         0         0
         0         0         0         0         0         0         0         0
         0         0         0         0         0         0         0         0
         0         0         0         0         0         0         0         0
         0         0         0         0         0         0         0         0
         0         0         0         0         0         0         0         0
         0         0         0         0         0         0         0         0
         0         0         0         0         0         0         0         0
         0         0         0         0         0         0         0         0
         0         0         0         0         0         0         0         0
         0         0         0         0         0         0         0         0
         0         0         0         0         0         0         0         0
         0         0         0         0         0         0         0         0
         0         0         0         0         0         0         0         0
         0         0         0         0         0         0         0         0
         0         0         0         0         0         0         0         0
         0         0         0         0         0         0         0         0
         0         0         0         0         0         0         0         0
         0         0         0         0         0         0         0         0
         0         0         0         0         0         0         0         0
         0         0         0         0         0         0         0         0
         0         0         0         0         0         0         0         0
         0         0         0         0         0         0         0         0
         0         0         0         0         0         0         0         0
         0         0         0         0         0         0         0         0
         0         0         0         0         0         0         0         0
         0         0         0         0         0         0         0         0
         0         0         0         0         0         0         0         0
         0         0         0         0         0         0         0         0
         0         0         0         0         0         0         0         0
         0         0         0         0         0         0         0         0
         0         0         0         0         0         0         0         0
         0         0         0         0         0         0         0         0
         0         0         0         0         0         0         0         0
         0         0         0         0         0         0         0         0
         0         0         0         0         0         0         0         0
         0         0         0         0         0         0         0         0
         0         0         0         0         0         0         0         0
         0         0         0         0         0         0         0         0
         0         0         0         0         0         0         0         0
         0         0         0         0         0         0         0         0
         0         0         0         0         0         0         0         0
         0         0         0         0         0         0         0         0
         0         0         0         0         0         0         0         0
         0         0         0         0         0         0         0         0
         0         0         0         0         0         0         0         0
         0         0         0         0         0         0         0         0
         0         0         0         0         0         0         0         0
         0         0         0         0         0         0         0         0
         0         0         0         0         0         0         0         0
         0         0         0         0         0         0         0         0
         0         0         0         0         0         0         0         0
         0         0         0         0         0         0         0         0
         0         0         0         0         0         0         0         0
         0         0         0         0         0         0         0         0
         0         0         0         0         0         0         0         0
         0         0         0         0         0         0         0         0
         0         0         0         0         0         0         0         0
         0         0         0         0         0         0         0         0
         0         0         0         0         0         0         0         0
         0         0         0         0         0         0         0         0
         0         0         0         0         0         0         0         0
         0         0         0         0         0         0         0         0
         0         0         0         0         0         0         0         0
         0         0         0         0         0         0         0         0
         0         0         0         0         0         0         0         0
         0         0         0         0         0         0         0         0
         0         0         0         0         0         0         0         0
         0         0         0         0         0         0         0         0
         0         0         0         0         0         0         0         0
         0         0         0         0         0         0         0         0
         0         0         0         0         0         0         0         0
         0         0         0         0         0         0         0         0
         0         0         0         0         0         0         0         0
         0         0         0         0         0         0         0         0
         0         0         0         0         0         0         0         0
         0         0         0         0         0         0         0         0
         0         0         0         0         0         0         0         0
         0         0         0         0         0         0         0         0
         0         0         0         0         0         0         0         0
         0         0         0         0         0         0         0         0
         0         0         0         0         0         0         0         0
         0         0         0         0         0         0         0         0
         0         0         0         0         0         0         0         0
         0         0         0         0         0         0         0         0
         0         0         0         0         0         0         0         0
         0         0         0         0         0         0         0         0
         0         0         0         0         0         0         0         0
         0         0         0         0         0         0         0         0
         0         0         0         0         0         0         0         0
         0         0         0         0         0         0         0         0
         0         0         0         0         0         0         0         0
         0         0         0         0         0         0         0         0
         0         0         0         0         0         0         0         0
         0         0         0         0         0         0         0         0
         0         0         0         0         0         0         0         0
         0         0         0         0         0         0         0         0
         0         0         0         0         0         0         0         0
         0         0         0         0         0         0         0         0
         0         0         0         0         0         0         0         0
         0         0         0         0         0         0         0         0
         0         0         0         0         0         0         0         0
         0         0         0         0         0         0         0         0
         0         0         0         0         0         0         0         0
         0         0         0         0         0         0         0         0
         0         0         0         0         0         0         0         0
         0         0         0         0         0         0         0         0
         0         0         0         0         0         0         0         0
         0         0         0         0         0         0         0         0
         0         0         0         0         0         0         0         0
         0         0         0         0         0         0         0         0
         0         0         0         0         0         0         0         0
         0         0         0         0         0         0         0         0
         0         0         0         0         0         0         0         0
         0         0         0         0         0         0         0         0
         0         0         0         0         0         0         0         0
         0         0         0         0         0         0         0         0
         0         0         0         0         0         0         0         0
         0         0         0         0         0         0         0         0
         0         0         0         0         0         0         0         0
         0         0         0         0         0         0         0         0
         0         0         0         0         0         0         0         0
         0         0         0         0         0         0         0         0
         0         0         0         0         0         0         0         0
         0         0         0         0         0         0         0         0
         0         0         0         0         0         0         0         0
         0         0         0         0         0         0         0         0
         0         0         0         0         0         0         0         0
         0         0         0         0         0         0         0         0
         0         0         0         0         0         0         0         0
         0         0         0         0         0         0         0         0
         0         0         0         0         0         0         0         0
         0         0         0         0         0         0         0         0
         0         0         0         0         0         0         0         0
         0         0         0         0         0         0         0         0
         0         0         0         0         0         0         0         0
         0         0         0         0         0         0         0         0
         0         0         0         0         0         0         0         0
         0         0         0         0         0         0         0         0
         0         0         0         0         0         0         0         0
         0         0         0         0         0         0         0         0
         0         0         0         0         0         0         0         0
         0         0         0         0         0         0         0         0
         0         0         0         0         0         0         0         0
         0         0         0         0         0         0         0         0
         0         0         0         0         0         0         0         0
         0         0         0         0         0         0         0         0
         0         0         0         0         0         0         0         0
         0         0         0         0         0         0         0         0
         0         0         0         0         0         0         0         0
         0         0         0         0         0         0         0         0
         0         0         0         0         0         0         0         0
         0         0         0         0         0         0         0         0
         0         0         0         0         0         0         0         0
         0         0         0         0         0         0         0         0
         0         0         0         0         0         0         0         0
         0         0         0         0         0         0         0         0
         0         0         0         0         0         0         0         0
         0         0         0         0         0         0         0         0
         0         0         0         0         0         0         0         0
         0         0         0         0         0         0         0         0
         0         0         0         0         0         0         0         0
         0         0         0         0         0         0         0         0
         0         0         0         0         0         0         0         0
         0         0         0         0         0         0         0         0
         0         0         0         0         0         0         0         0
         0         0         0         0         0         0         0         0
         0         0         0         0         0         0         0         0
         0         0         0         0         0         0         0         0
         0         0         0         0         0         0         0         0
         0         0         0         0         0         0         0         0
         0         0         0         0         0         0         0         0
         0         0         0         0         0         0         0         0
         0         0         0         0         0         0         0         0
         0         0         0         0         0         0         0         0
         0         0         0         0         0         0         0         0
         0         0         0         0         0         0         0         0
         0         0         0         0         0         0         0         0
         0         0         0         0         0         0         0         0
         0         0         0         0         0         0         0         0
         0         0         0         0         0         0         0         0
         0         0         0         0         0         0         0         0
         0         0         0         0         0         0         0         0
         0         0         0         0         0         0         0         0
         0         0         0         0         0         0         0         0
         0         0         0         0         0         0         0         0
         0         0         0         0         0         0         0         0
         0         0         0         0         0         0         0         0
         0         0         0         0         0         0         0         0
         0         0         0         0         0         0         0         0
         0         0         0         0         0         0         0         0
         0         0         0         0         0         0         0         0
         0         0         0         0         0         0         0         0
         0         0         0         0         0         0         0         0
         0         0         0         0         0         0         0         0
         0         0         0         0         0         0         0         0
         0         0         0         0         0         0         0         0
         0         0         0         0         0         0         0         0
         0         0         0         0         0         0         0         0
         0         0         0         0         0         0         0         0
         0         0         0         0         0         0         0         0
         0         0         0         0         0         0         0         0
         0         0         0         0         0         0         0         0
         0         0         0         0         0         0         0         0
         0         0         0         0         0         0         0         0
         0         0         0         0         0         0         0         0
         0         0         0         0         0         0         0         0
         0         0         0         0         0         0         0         0
         0         0         0         0         0         0         0         0
         0         0         0         0         0         0         0         0
         0         0         0         0         0         0         0         0
         0         0         0         0         0         0         0         0
         0         0         0         0         0         0         0         0
         0         0         0         0         0         0         0         0
         0         0         0         0         0         0         0         0
         0         0         0         0         0         0         0         0
         0         0         0         0         0         0         0         0
         0         0         0         0         0         0         0         0
         0         0         0         0         0         0         0         0
         0         0         0         0         0         0         0         0
         0         0         0         0         0         0         0         0
         0         0         0         0         0         0         0         0
         0         0         0         0         0         0         0         0
         0         0         0         0         0         0         0         0
         0         0         0         0         0         0         0         0
         0         0         0         0         0         0         0         0
         0         0         0         0         0         0         0         0
         0         0         0         0         0         0         0         0
         0         0         0         0         0         0         0         0
         0         0         0         0         0         0         0         0
         0         0         0         0         0         0         0         0
         0         0         0         0         0         0         0         0
         0         0         0         0         0         0         0         0
         0         0         0         0         0         0         0         0
         0         0         0         0         0         0         0         0
         0         0         0         0         0         0         0         0
         0         0         0         0         0         0         0         0
         0         0         0         0         0         0         0         0
         0         0         0         0         0         0         0         0
         0         0         0         0         0         0         0         0
         0         0         0         0         0         0         0         0
         0         0         0         0         0         0         0         0
         0         0         0         0         0         0         0         0
         0         0         0         0         0         0         0         0
         0         0         0         0         0         0         0         0
         0         0         0         0         0         0         0         0
         0         0         0         0         0         0         0         0
         0         0         0         0         0         0         0         0
         0         0         0         0         0         0         0         0
         0         0         0         0         0         0         0         0
         0         0         0         0         0         0         0         0
         0         0         0         0         0         0         0         0
         0         0         0         0         0         0         0         0
         0         0         0         0         0         0         0         0
         0         0         0         0         0         0         0         0
         0         0         0         0         0         0         0         0
         0         0         0         0         0         0         0         0
         0         0         0         0         0         0         0         0
         0         0         0         0         0         0         0         0
         0         0         0         0         0         0         0         0
         0         0         0         0         0         0         0         0
         0         0         0         0         0         0         0         0
         0         0         0         0         0         0         0         0
         0         0         0         0         0         0         0         0
         0         0         0         0         0         0         0         0
         0         0         0         0         0         0         0         0
         0         0         0         0         0         0         0         0
         0         0         0         0         0         0         0         0
         0         0         0         0         0         0         0         0
         0         0         0         0         0         0         0         0
         0         0         0         0         0         0         0         0
         0         0         0         0         0         0         0         0
         0         0         0         0         0         0         0         0
         0         0         0         0         0         0         0         0
         0         0         0         0         0         0         0         0
         0         0         0         0         0         0         0         0
         0         0         0         0         0         0         0         0
         0         0         0         0         0         0         0         0
         0         0         0         0         0         0         0         0
         0         0         0         0         0         0         0         0
         0         0         0         0         0         0         0         0
         0         0         0         0         0         0         0         0
         0         0         0         0         0         0         0         0
         0         0         0         0         0         0         0         0
         0         0         0         0         0         0         0         0
         0         0         0         0         0         0         0         0
         0         0         0         0         0         0         0         0
         0         0         0         0         0         0         0         0
         0         0         0         0         0         0         0         0
         0         0         0         0         0         0         0         0
         0         0         0         0         0         0         0         0
         0         0         0         0         0         0         0         0
         0         0         0         0         0         0         0         0
         0         0         0         0         0         0         0         0
         0         0         0         0         0         0         0         0
         0         0         0         0         0         0         0         0
         0         0         0         0         0         0         0         0
         0         0         0         0         0         0         0         0
         0         0         0         0         0         0         0         0
         0         0         0         0         0         0         0         0
         0         0         0         0         0         0         0         0
         0         0         0         0         0         0         0         0
         0         0         0         0         0         0         0         0
         0         0         0         0         0         0         0         0
         0         0         0         0         0         0         0         0
         0         0         0         0         0         0         0         0
         0         0         0         0         0         0         0         0
         0         0         0         0         0         0         0         0
         0         0         0         0         0         0         0         0
         0         0         0         0         0         0         0         0
         0         0         0         0         0         0         0         0
         0         0         0         0         0         0         0         0
         0         0         0         0         0         0         0         0
         0         0         0         0         0         0         0         0
         0         0         0         0         0         0         0         0
         0         0         0         0         0         0         0         0
         0         0         0         0         0         0         0         0
         0         0         0         0         0         0         0         0
         0         0         0         0         0         0         0         0
         0         0         0         0         0         0         0         0
         0         0         0         0         0         0         0         0
         0         0         0         0         0         0         0         0
         0         0         0         0         0         0         0         0
         0         0         0         0         0         0         0         0
         0         0         0         0         0         0         0         0
         0         0         0         0         0         0         0         0
         0         0         0         0         0         0         0         0
         0         0         0         0         0         0         0         0
         0         0         0         0         0         0         0         0
         0         0         0         0         0         0         0         0
         0         0         0         0         0         0         0         0
         0         0         0         0         0         0         0         0
         0         0         0         0         0         0         0         0
         0         0         0         0         0         0         0         0
         0         0         0         0         0         0         0         0
         0         0         0         0         0         0         0         0
         0         0         0         0         0         0         0         0
         0         0         0         0         0         0         0         0
         0         0         0         0         0         0         0         0
         0         0         0         0         0         0         0         0
         0         0         0         0         0         0         0         0
         0         0         0         0         0         0         0         0
         0         0         0         0         0         0         0         0
         0         0         0         0         0         0         0         0
         0         0         0         0         0         0         0         0
         0         0         0         0         0         0         0         0
         0         0         0         0         0         0         0         0
         0         0         0         0         0         0         0         0
         0         0         0         0         0         0         0         0
         0         0         0         0         0         0         0         0
         0         0         0         0         0         0         0         0
         0         0         0         0         0         0         0         0
         0         0         0         0         0         0         0         0
         0         0         0         0         0         0         0         0
         0         0         0         0         0         0         0         0
         0         0         0         0         0         0         0         0
         0         0         0         0         0         0         0         0
         0         0         0         0         0         0         0         0
         0         0         0         0         0         0         0         0
         0         0         0         0         0         0         0         0
         0         0         0         0         0         0         0         0
         0         0         0         0         0         0         0         0
         0         0         0         0         0         0         0         0
         0         0         0         0         0         0         0         0
         0         0         0         0         0         0         0         0
         0         0         0         0         0         0         0         0
         0         0         0         0         0         0         0         0
         0         0         0         0         0         0         0         0
         0         0         0         0         0         0         0         0
         0         0         0         0         0         0         0         0
         0         0         0         0         0         0         0         0
         0         0         0         0         0         0         0         0
         0         0         0         0         0         0         0         0
         0         0         0         0         0         0         0         0
         0         0         0         0         0         0         0         0
         0         0         0         0         0         0         0         0
         0         0         0         0         0         0         0         0
         0         0         0         0         0         0         0         0
         0         0         0         0         0         0         0         0
         0         0         0         0         0         0         0         0
         0         0         0         0         0         0         0         0
         0         0         0         0         0         0         0         0
         0         0         0         0         0         0         0         0
         0         0         0         0         0         0         0         0
         0         0         0         0         0         0         0         0
         0         0         0         0         0         0         0         0
         0         0         0         0         0         0         0         0
         0         0         0         0         0         0         0         0
         0         0         0         0         0         0         0         0
         0         0         0         0         0         0         0         0
         0         0         0         0         0         0         0         0
         0         0         0         0         0         0         0         0
         0         0         0         0         0         0         0         0
         0         0         0         0         0         0         0         0
         0         0         0         0         0         0         0         0
         0         0         0         0         0         0         0         0
         0         0         0         0         0         0         0         0
         0         0         0         0         0         0         0         0
         0         0         0         0         0         0         0         0
         0         0         0         0         0         0         0         0
         0         0         0         0         0         0         0         0
         0         0         0         0         0         0         0         0
         0         0         0         0         0         0         0         0
         0         0         0         0         0         0         0         0
         0         0         0         0         0         0         0         0
         0         0         0         0         0         0         0         0
         0         0         0         0         0         0         0         0
         0         0         0         0         0         0         0         0
         0         0         0         0         0         0         0         0
         0         0         0         0         0         0         0         0
         0         0         0         0         0         0         0         0
         0         0         0         0         0         0         0         0
         0         0         0         0         0         0         0         0
         0         0         0         0         0         0         0         0
         0         0         0         0         0         0         0         0
         0         0         0         0         0         0         0         0
         0         0         0         0         0         0         0         0
         0         0         0         0         0         0         0         0
         0         0         0         0         0         0         0         0
         0         0         0         0         0         0         0         0
         0         0         0         0         0         0         0         0
         0         0         0         0         0         0         0         0
         0         0         0         0         0         0         0         0
         0         0         0         0         0         0         0         0
         0         0         0         0         0         0         0         0
         0         0         0         0         0         0         0         0
         0         0         0         0         0         0         0         0
         0         0         0         0         0         0         0         0
         0         0         0         0         0         0         0         0
         0         0         0         0         0         0         0         0
         0         0         0         0         0         0         0         0
         0         0         0         0         0         0         0         0
         0         0         0         0         0         0         0         0
         0         0         0         0         0         0         0         0
         0         0         0         0         0         0         0         0
         0         0         0         0         0         0         0         0
         0         0         0         0         0         0         0         0
         0         0         0         0         0         0         0         0
         0         0         0         0         0         0         0         0
         0         0         0         0         0         0         0         0
         0         0         0         0         0         0         0         0
         0         0         0         0         0         0         0         0
         0         0         0         0         0         0         0         0
         0         0         0         0         0         0         0         0
         0         0         0         0         0         0         0         0
         0         0         0         0         0         0         0         0
         0         0         0         0         0         0         0         0
         0         0         0         0         0         0         0         0
         0         0         0         0         0         0         0         0
         0         0         0         0         0         0         0         0
         0         0         0         0         0         0         0         0
         0         0         0         0         0         0         0         0
         0         0         0         0         0         0         0         0
         0         0         0         0         0         0         0         0
         0         0         0         0         0         0         0         0
         0         0         0         0         0         0         0         0
         0         0         0         0         0         0         0         0
         0         0         0         0         0         0         0         0
         0         0         0         0         0         0         0         0
         0         0         0         0         0         0         0         0
         0         0         0         0         0         0         0         0
         0         0         0         0         0         0         0         0
         0         0         0         0         0         0         0         0
         0         0         0         0         0         0         0         0
         0         0         0         0         0         0         0         0
         0         0         0         0         0         0         0         0
         0         0         0         0         0         0         0         0
         0         0         0         0         0         0         0         0
         0         0         0         0         0         0         0         0
         0         0         0         0         0         0         0         0
         0         0         0         0         0         0         0         0
         0         0         0         0         0         0         0         0
         0         0         0         0         0         0         0         0
         0         0         0         0         0         0         0         0
         0         0         0         0         0         0         0         0
         0         0         0         0         0         0         0         0
         0         0         0         0         0         0         0         0
         0         0         0         0         0         0         0         0
         0         0         0         0         0         0         0         0
         0         0         0         0         0         0         0         0
         0         0         0         0         0         0         0         0
         0         0         0         0         0         0         0         0
         0         0         0         0         0         0         0         0
         0         0         0         0         0         0         0         0
         0         0         0         0         0         0         0         0
         0         0         0         0         0         0         0         0
         0         0         0         0         0         0         0         0
         0         0         0         0         0         0         0         0
         0         0         0         0         0         0         0         0
         0         0         0         0         0         0         0         0
         0         0         0         0         0         0         0         0
         0         0         0         0         0         0         0         0
         0         0         0         0         0         0         0         0
         0         0         0         0         0         0         0         0
         0         0         0         0         0         0         0         0
         0         0         0         0         0         0         0         0
         0         0         0         0         0         0         0         0
         0         0         0         0         0         0         0         0
         0         0         0         0         0         0         0         0
         0         0         0         0         0         0         0         0
         0         0         0         0         0         0         0         0
         0         0         0         0         0         0         0         0
         0         0         0         0         0         0         0         0
         0         0         0         0         0         0         0         0
         0         0         0         0         0         0         0         0
         0         0         0         0         0         0         0         0
         0         0         0         0         0         0         0         0
         0         0         0         0         0         0         0         0
         0         0         0         0         0         0         0         0
         0         0         0         0         0         0         0         0
         0         0         0         0         0         0         0         0
         0         0         0         0         0         0         0         0
         0         0         0         0         0         0         0         0
         0         0         0         0         0         0         0         0
         0         0         0         0         0         0         0         0
         0         0         0         0         0         0         0         0
         0         0         0         0         0         0         0         0
         0         0         0         0         0         0         0         0
         0         0         0         0         0         0         0         0
         0         0         0         0         0         0         0         0
         0         0         0         0         0         0         0         0
         0         0         0         0         0         0         0         0
         0         0         0         0         0         0         0         0
         0         0         0         0         0         0         0         0
         0         0         0         0         0         0         0         0
         0         0         0         0         0         0         0         0
         0         0         0         0         0         0         0         0
         0         0         0         0         0         0         0         0
         0         0         0         0         0         0         0         0
         0         0         0         0         0         0         0         0
         0         0         0         0         0         0         0         0
         0         0         0         0         0         0         0         0
         0         0         0         0         0         0         0         0
         0         0         0         0         0         0         0         0
         0         0         0         0         0         0         0         0
         0         0         0         0         0         0         0         0
         0         0         0         0         0         0         0         0
         0         0         0         0         0         0         0         0
         0         0         0         0         0         0         0         0
         0         0         0         0         0         0         0         0
         0         0         0         0         0         0         0         0
         0         0         0         0         0         0         0         0
         0         0         0         0         0         0         0         0
         0         0         0         0         0         0         0         0
         0         0         0         0         0         0         0         0
         0         0         0         0         0         0         0         0
         0         0         0         0         0         0         0         0
         0         0         0         0         0         0         0         0
         0         0         0         0         0         0         0         0
         0         0         0         0         0         0         0         0
         0         0         0         0         0         0         0         0
         0         0         0         0         0         0         0         0
         0         0         0         0         0         0         0         0
         0         0         0         0         0         0         0         0
         0         0         0         0         0         0         0         0
         0         0         0         0         0         0         0         0
         0         0         0         0         0         0         0         0
         0         0         0         0         0         0         0         0
         0         0         0         0         0         0         0         0
         0         0         0         0         0         0         0         0
         0         0         0         0         0         0         0         0
         0         0         0         0         0         0         0         0
         0         0         0         0         0         0         0         0
         0         0         0         0         0         0         0         0
         0         0         0         0         0         0         0         0
         0         0         0         0         0         0         0         0
         0         0         0         0         0         0         0         0
         0         0         0         0         0         0         0         0
         0         0         0         0         0         0         0         0
         0         0         0         0         0         0         0         0
         0         0         0         0         0         0         0         0
         0         0         0         0         0         0         0         0
         0         0         0         0         0         0         0         0
         0         0         0         0         0         0         0         0
         0         0         0         0         0         0         0         0
         0         0         0         0         0         0         0         0
         0         0         0         0         0         0         0         0
         0         0         0         0         0         0         0         0
         0         0         0         0         0         0         0         0
         0         0         0         0         0         0         0         0
         0         0         0         0         0         0         0         0
         0         0         0         0         0         0         0         0
         0         0         0         0         0         0         0         0
         0         0         0         0         0         0         0         0
         0         0         0         0         0         0         0         0
         0         0         0         0         0         0         0         0
         0         0         0         0         0         0         0         0
         0         0         0         0         0         0         0         0
         0         0         0         0         0         0         0         0
         0         0         0         0         0         0         0         0
         0         0         0         0         0         0         0         0
         0         0         0         0         0         0         0         0
         0         0         0         0         0         0         0         0
         0         0         0         0         0         0         0         0
         0         0         0         0         0         0         0         0
         0         0         0         0         0         0         0         0
         0         0         0         0         0         0         0         0
         0         0         0         0         0         0         0         0
         0         0         0         0         0         0         0         0
         0         0         0         0         0         0         0         0
         0         0         0         0         0         0         0         0
         0         0         0         0         0         0         0         0
         0         0         0         0         0         0         0         0
         0         0         0         0         0         0         0         0
         0         0         0         0         0         0         0         0
         0         0         0         0         0         0         0         0
         0         0         0         0         0         0         0         0
         0         0         0         0         0         0         0         0
         0         0         0         0         0         0         0         0
         0         0         0         0         0         0         0         0
         0         0         0         0         0         0         0         0
         0         0         0         0         0         0         0         0
         0         0         0         0         0         0         0         0
         0         0         0         0         0         0         0         0
         0         0         0         0         0         0         0         0
         0         0         0         0         0         0         0         0
         0         0         0         0         0         0         0         0
         0         0         0         0         0         0         0         0
         0         0         0         0         0         0         0         0
         0         0         0         0         0         0         0         0
         0         0         0         0         0         0         0         0
         0         0         0         0         0         0         0         0
         0         0         0         0         0         0         0         0
         0         0         0         0         0         0         0         0
         0         0         0         0         0         0         0         0
         0         0         0         0         0         0         0         0
         0         0         0         0         0         0         0         0
         0         0         0         0         0         0         0         0
         0         0         0         0         0         0         0         0
         0         0         0         0         0         0         0         0
         0         0         0         0         0         0         0         0
         0         0         0         0         0         0         0         0
         0         0         0         0         0         0         0         0
         0         0         0         0         0         0         0         0
         0         0         0         0         0         0         0         0
         0         0         0         0         0         0         0         0
         0         0         0         0         0         0         0         0
         0         0         0         0         0         0         0         0
         0         0         0         0         0         0         0         0
         0         0         0         0         0         0         0         0
         0         0         0         0         0         0         0         0
         0         0         0         0         0         0         0         0
         0         0         0         0         0         0         0         0
         0         0         0         0         0         0         0         0
         0         0         0         0         0         0         0         0
         0         0         0         0         0         0         0         0
         0         0         0         0         0         0         0         0
         0         0         0         0         0         0         0         0
         0         0         0         0         0         0         0         0
         0         0         0         0         0         0         0         0
         0         0         0         0         0         0         0         0
         0         0         0         0         0         0         0         0
         0         0         0         0         0         0         0         0
         0         0         0         0         0         0         0         0
         0         0         0         0         0         0         0         0
         0         0         0         0         0         0         0         0
         0         0         0         0         0         0         0         0
         0         0         0         0         0         0         0         0
         0         0         0         0         0         0         0         0
         0         0         0         0         0         0         0         0
         0         0         0         0         0         0         0         0
         0         0         0         0         0         0         0         0
         0         0         0         0         0         0         0         0
         0         0         0         0         0         0         0         0
         0         0         0         0         0         0         0         0
         0         0         0         0         0         0         0         0
         0         0         0         0         0         0         0         0
         0         0         0         0         0         0         0         0
         0         0         0         0         0         0         0         0
         0         0         0         0         0         0         0         0
         0         0         0         0         0         0         0         0
         0         0         0         0         0         0         0         0
         0         0         0         0         0         0         0         0
         0         0         0         0         0         0         0         0
         0         0         0         0         0         0         0         0
         0         0         0         0         0         0         0         0
         0         0         0         0         0         0         0         0
         0         0         0         0         0         0         0         0
         0         0         0         0         0         0         0         0
         0         0         0         0         0         0         0         0
         0         0         0         0         0         0         0         0
         0         0         0         0         0         0         0         0
         0         0         0         0         0         0         0         0
         0         0         0         0         0         0         0         0
         0         0         0         0         0         0         0         0
         0         0         0         0         0         0         0         0
         0         0         0         0         0         0         0         0
         0         0         0         0         0         0         0         0
         0         0         0         0         0         0         0         0
         0         0         0         0         0         0         0         0
         0         0         0         0         0         0         0         0
         0         0         0         0         0         0         0         0
         0         0         0         0         0         0         0         0
         0         0         0         0         0         0         0         0
         0         0         0         0         0         0         0         0
         0         0         0         0         0         0         0         0
         0         0         0         0         0         0         0         0
         0         0         0         0         0         0         0         0
         0         0         0         0         0         0         0         0
         0         0         0         0         0         0         0         0
         0         0         0         0         0         0         0         0
         0         0         0         0         0         0         0         0
         0         0         0         0         0         0         0         0
         0         0         0         0         0         0         0         0
         0         0         0         0         0         0         0         0
         0         0         0         0         0         0         0         0
         0         0         0         0         0         0         0         0
         0         0         0         0         0         0         0         0
         0         0         0         0         0         0         0         0
         0         0         0         0         0         0         0         0
         0         0         0         0         0         0         0         0
         0         0         0         0         0         0         0         0
         0         0         0         0         0         0         0         0
         0         0         0         0         0         0         0         0
         0         0         0         0         0         0         0         0
         0         0         0         0         0         0         0         0
         0         0         0         0         0         0         0         0
         0         0         0         0         0         0         0         0
         0         0         0         0         0         0         0         0
         0         0         0         0         0         0         0         0
         0         0         0         0         0         0         0         0
         0         0         0         0         0         0         0         0
         0         0         0         0         0         0         0         0
         0         0         0         0         0         0         0         0
         0         0         0         0         0         0         0         0
         0         0         0         0         0         0         0         0
         0         0         0         0         0         0         0         0
         0         0         0         0         0         0         0         0
         0         0         0         0         0         0         0         0
         0         0         0         0         0         0         0         0
         0         0         0         0         0         0         0         0
         0         0         0         0         0         0         0         0
         0         0         0         0         0         0         0         0
         0         0         0         0         0         0         0         0
         0         0         0         0         0         0         0         0
         0         0         0         0         0         0         0         0
         0         0         0         0         0         0         0         0
         0         0         0         0         0         0         0         0
         0         0         0         0         0         0         0         0
         0         0         0         0         0         0         0         0
         0         0         0         0         0         0         0         0
         0         0         0         0         0         0         0         0
         0         0         0         0         0         0         0         0
         0         0         0         0         0         0         0         0
         0         0         0         0         0         0         0         0
         0         0         0         0         0         0         0         0
         0         0         0         0         0         0         0         0
         0         0         0         0         0         0         0         0
         0         0         0         0         0         0         0         0
         0         0         0         0         0         0         0         0
         0         0         0         0         0         0         0         0
         0         0         0         0         0         0         0         0
         0         0         0         0         0         0         0         0
         0         0         0         0         0         0         0         0
         0         0         0         0         0         0         0         0
         0         0         0         0         0         0         0         0
         0         0         0         0         0         0         0         0
         0         0         0         0         0         0         0         0
         0         0         0         0         0         0         0         0
         0         0         0         0         0         0         0         0
         0         0         0         0         0         0         0         0
         0         0         0         0         0         0         0         0
         0         0         0         0         0         0         0         0
         0         0         0         0         0         0         0         0
         0         0         0         0         0         0         0         0
         0         0         0         0         0         0         0         0
         0         0         0         0         0         0         0         0
         0         0         0         0         0         0         0         0
         0         0         0         0         0         0         0         0
         0         0         0         0         0         0         0         0
         0         0         0         0         0         0         0         0
         0         0         0         0         0         0         0         0
         0         0         0         0         0         0         0         0
         0         0         0         0         0         0         0         0
         0         0         0         0         0         0         0         0
         0         0         0         0         0         0         0         0
         0         0         0         0         0         0         0         0
         0         0         0         0         0         0         0         0
         0         0         0         0         0         0         0         0
         0         0         0         0         0         0         0         0
         0         0         0         0         0         0         0         0
         0         0         0         0         0         0         0         0
         0         0         0         0         0         0         0         0
         0         0         0         0         0         0         0         0
         0         0         0         0         0         0         0         0
         0         0         0         0         0         0         0         0
         0         0         0         0         0         0         0         0
         0         0         0         0         0         0         0         0
         0         0         0         0         0         0         0         0
         0         0         0         0         0         0         0         0
         0         0         0         0         0         0         0         0
         0         0         0         0         0         0         0         0
         0         0         0         0         0         0         0         0
         0         0         0         0         0         0         0         0
         0         0         0         0         0         0         0         0
         0         0         0         0         0         0         0         0
         0         0         0         0         0         0         0         0
         0         0         0         0         0         0         0         0
         0         0         0         0         0         0         0         0
         0         0         0         0         0         0         0         0
         0         0         0         0         0         0         0         0
         0         0         0         0         0         0         0         0
         0         0         0         0         0         0         0         0
         0         0         0         0         0         0         0         0
         0         0         0         0         0         0         0         0
         0         0         0         0         0         0         0         0
         0         0         0         0         0         0         0         0
         0         0         0         0         0         0         0         0
         0         0         0         0         0         0         0         0
         0         0         0         0         0         0         0         0
         0         0         0         0         0         0         0         0
         0         0         0         0         0         0         0         0
         0         0         0         0         0         0         0         0
         0         0         0         0         0         0         0         0
         0         0         0         0         0         0         0         0
         0         0         0         0         0         0         0         0
         0         0         0         0         0         0         0         0
         0         0         0         0         0         0         0         0
         0         0         0         0         0         0         0         0
         0         0         0         0         0         0         0         0
         0         0         0         0         0         0         0         0
         0         0         0         0         0         0         0         0
         0         0         0         0         0         0         0         0
         0         0         0         0         0         0         0         0
         0         0         0         0         0         0         0         0
         0         0         0         0         0         0         0         0
         0         0         0         0         0         0         0         0
         0         0         0         0         0         0         0         0
         0         0         0         0         0         0         0         0
         0         0         0         0         0         0         0         0
         0         0         0         0         0         0         0         0
         0         0         0         0         0         0         0         0
         0         0         0         0         0         0         0         0
         0         0         0         0         0         0         0         0
         0         0         0         0         0         0         0         0
         0         0         0         0         0         0         0         0
         0         0         0         0         0         0         0         0
         0         0         0         0         0         0         0         0
         0         0         0         0         0         0         0         0
         0         0         0         0         0         0         0         0
         0         0         0         0         0         0         0         0
         0         0         0         0         0         0         0         0
         0         0         0         0         0         0         0         0
         0         0         0         0         0         0         0         0
         0         0         0         0         0         0         0         0
         0         0         0         0         0         0         0         0
         0         0         0         0         0         0         0         0
         0         0         0         0         0         0         0         0
         0         0         0         0         0         0         0         0
         0         0         0         0         0         0         0         0
         0         0         0         0         0         0         0         0
         0         0         0         0         0         0         0         0
         0         0         0         0         0         0         0         0
         0         0         0         0         0         0         0         0
         0         0         0         0         0         0         0         0
         0         0         0         0         0         0         0         0
         0         0         0         0         0         0         0         0
         0         0         0         0         0         0         0         0
         0         0         0         0         0         0         0         0
         0         0         0         0         0         0         0         0
         0         0         0         0         0         0         0         0
         0         0         0         0         0         0         0         0
         0         0         0         0         0         0         0         0
         0         0         0         0         0         0         0         0
         0         0         0         0         0         0         0         0
         0         0         0         0         0         0         0         0
         0         0         0         0         0         0         0         0
         0         0         0         0         0         0         0         0
         0         0         0         0         0         0         0         0
         0         0         0         0         0         0         0         0
         0         0         0         0         0         0         0         0
         0         0         0         0         0         0         0         0
         0         0         0         0         0         0         0         0
         0         0         0         0         0         0         0         0
         0         0         0         0         0         0         0         0
         0         0         0         0         0         0         0         0
         0         0         0         0         0         0         0         0
         0         0         0         0         0         0         0         0
         0         0         0         0         0         0         0         0
         0         0         0         0         0         0         0         0
         0         0         0         0         0         0         0         0
         0         0         0         0         0         0         0         0
         0         0         0         0         0         0         0         0
         0         0         0         0         0         0         0         0
         0         0         0         0         0         0         0         0
         0         0         0         0         0         0         0         0
         0         0         0         0         0         0         0         0
         0         0         0         0         0         0         0         0
         0         0         0         0         0         0         0         0
         0         0         0         0         0         0         0         0
         0         0         0         0         0         0         0         0
         0         0         0         0         0         0         0         0
         0         0         0         0         0         0         0         0
         0         0         0         0         0         0         0         0
         0         0         0         0         0         0         0         0
         0         0         0         0         0         0         0         0
         0         0         0         0         0         0         0         0
         0         0         0         0         0         0         0         0
         0         0         0         0         0         0         0         0
         0         0         0         0         0         0         0         0
         0         0         0         0         0         0         0         0
         0         0         0         0         0         0         0         0
         0         0         0         0         0         0         0         0
         0         0         0         0         0         0         0         0
         0         0         0         0         0         0         0         0
         0         0         0         0         0         0         0         0
         0         0         0         0         0         0         0         0
         0         0         0         0         0         0         0         0
         0         0         0         0         0         0         0         0
         0         0         0         0         0         0         0         0
         0         0         0         0         0         0         0         0
         0         0         0         0         0         0         0         0
         0         0         0         0         0         0         0         0
         0         0         0         0         0         0         0         0
         0         0         0         0         0         0         0         0
         0         0         0         0         0         0         0         0
         0         0         0         0         0         0         0         0
         0         0         0         0         0         0         0         0
         0         0         0         0         0         0         0         0
         0         0         0         0         0         0         0         0
         0         0         0         0         0         0         0         0
         0         0         0         0         0         0         0         0
         0         0         0         0         0         0         0         0
         0         0         0         0         0         0         0         0
         0         0         0         0         0         0         0         0
         0         0         0         0         0         0         0         0
         0         0         0         0         0         0         0         0
         0         0         0         0         0         0         0         0
         0         0         0         0         0         0         0         0
         0         0         0         0         0         0         0         0
         0         0         0         0         0         0         0         0
         0         0         0         0         0         0         0         0
         0         0         0         0         0         0         0         0
         0         0         0         0         0         0         0         0
         0         0         0         0         0         0         0         0
         0         0         0         0         0         0         0         0
         0         0         0         0         0         0         0         0
         0         0         0         0         0         0         0         0
         0         0         0         0         0         0         0         0
         0         0         0         0         0         0         0         0
         0         0         0         0         0         0         0         0
         0         0         0         0         0         0         0         0
         0         0         0         0         0         0         0         0
         0         0         0         0         0         0         0         0
         0         0         0         0         0         0         0         0
         0         0         0         0         0         0         0         0
         0         0         0         0         0         0         0         0
         0         0         0         0         0         0         0         0
         0         0         0         0         0         0         0         0
         0         0         0         0         0         0         0         0
         0         0         0         0         0         0         0         0
         0         0         0         0         0         0         0         0
         0         0         0         0         0         0         0         0
         0         0         0         0         0         0         0         0
         0         0         0         0         0         0         0         0
         0         0         0         0         0         0         0         0
         0         0         0         0         0         0         0         0
         0         0         0         0         0         0         0         0
         0         0         0         0         0         0         0         0
         0         0         0         0         0         0         0         0
         0         0         0         0         0         0         0         0
         0         0         0         0         0         0         0         0
         0         0         0         0         0         0         0         0
         0         0         0         0         0         0         0         0
         0         0         0         0         0         0         0         0
         0         0         0         0         0         0         0         0
         0         0         0         0         0         0         0         0
         0         0         0         0         0         0         0         0
         0         0         0         0         0         0         0         0
         0         0         0         0         0         0         0         0
         0         0         0         0         0         0         0         0
         0         0         0         0         0         0         0         0
         0         0         0         0         0         0         0         0
         0         0         0         0         0         0         0         0
         0         0         0         0         0         0         0         0
         0         0         0         0         0         0         0         0
         0         0         0         0         0         0         0         0
         0         0         0         0         0         0         0         0
         0         0         0         0         0         0         0         0
         0         0         0         0         0         0         0         0
         0         0         0         0         0         0         0         0
         0         0         0         0         0         0         0         0
         0         0         0         0         0         0         0         0
         0         0         0         0         0         0         0         0
         0         0         0         0         0         0         0         0
         0         0         0         0         0         0         0         0
         0         0         0         0         0         0         0         0
         0         0         0         0         0         0         0         0
         0         0         0         0         0         0         0         0
         0         0         0         0         0         0         0         0
         0         0         0         0         0         0         0         0
         0         0         0         0         0         0         0         0
         0         0         0         0         0         0         0         0
         0         0         0         0         0         0         0         0
         0         0         0         0         0         0         0         0
         0         0         0         0         0         0         0         0
         0         0         0         0         0         0         0         0
         0         0         0         0         0         0         0         0
         0         0         0         0         0         0         0         0
         0         0         0         0         0         0         0         0
         0         0         0         0         0         0         0         0
         0         0         0         0         0         0         0         0
         0         0         0         0         0         0         0         0
         0         0         0         0         0         0         0         0
         0         0         0         0         0         0         0         0
         0         0         0         0         0         0         0         0
         0         0         0         0         0         0         0         0
         0         0         0         0         0         0         0         0
         0         0         0         0         0         0         0         0
         0         0         0         0         0         0         0         0
         0         0         0         0         0         0         0         0
         0         0         0         0         0         0         0         0
         0         0         0         0         0         0         0         0
         0         0         0         0         0         0         0         0
         0         0         0         0         0         0         0         0
         0         0         0         0         0         0         0         0
         0         0         0         0         0         0         0         0
         0         0         0         0         0         0         0         0
         0         0         0         0         0         0         0         0
         0         0         0         0         0         0         0         0
         0         0         0         0         0         0         0         0
         0         0         0         0         0         0         0         0
         0         0         0         0         0         0         0         0
         0         0         0         0         0         0         0         0
         0         0         0         0         0         0         0         0
         0         0         0         0         0         0         0         0
         0         0         0         0         0         0         0         0
         0         0         0         0         0         0         0         0
         0         0         0         0         0         0         0         0
         0         0         0         0         0         0         0         0
         0         0         0         0         0         0         0         0
         0         0         0         0         0         0         0         0
         0         0         0         0         0         0         0         0
         0         0         0         0         0         0         0         0
         0         0         0         0         0         0         0         0
         0         0         0         0         0         0         0         0
         0         0         0         0         0         0         0         0
         0         0         0         0         0         0         0         0
         0         0         0         0         0         0         0         0
         0         0         0         0         0         0         0         0
         0         0         0         0         0         0         0         0
         0         0         0         0         0         0         0         0
         0         0         0         0         0         0         0         0
         0         0         0         0         0         0         0         0
         0         0         0         0         0         0         0         0
         0         0         0         0         0         0         0         0
         0         0         0         0         0         0         0         0
         0         0         0         0         0         0         0         0
         0         0         0         0         0         0         0         0
         0         0         0         0         0         0         0         0
         0         0         0         0         0         0         0         0
         0         0         0         0         0         0         0         0
         0         0         0         0         0         0         0         0
         0         0         0         0         0         0         0         0
         0         0         0         0         0         0         0         0
         0         0         0         0         0         0         0         0
         0         0         0         0         0         0         0         0
         0         0         0         0         0         0         0         0
         0         0         0         0         0         0         0         0
         0         0         0         0         0         0         0         0
         0         0         0         0         0         0         0         0
         0         0         0         0         0         0         0         0
         0         0         0         0         0         0         0         0
         0         0         0         0         0         0         0         0
         0         0         0         0         0         0         0         0
         0         0         0         0         0         0         0         0
         0         0         0         0         0         0         0         0
         0         0         0         0         0         0         0         0
         0         0         0         0         0         0         0         0
         0         0         0         0         0         0         0         0
         0         0         0         0         0         0         0         0
         0         0         0         0         0         0         0         0
         0         0         0         0         0         0         0         0
         0         0         0         0         0         0         0         0
         0         0         0         0         0         0         0         0
         0         0         0         0         0         0         0         0
         0         0         0         0         0         0         0         0
         0         0         0         0         0         0         0         0
         0         0         0         0         0         0         0         0
         0         0         0         0         0         0         0         0
         0         0         0         0         0         0         0         0
         0         0         0         0         0         0         0         0
         0         0         0         0         0         0         0         0
         0         0         0         0         0         0         0         0
         0         0         0         0         0         0         0         0
         0         0         0         0         0         0         0         0
         0         0         0         0         0         0         0         0
         0         0         0         0         0         0         0         0
         0         0         0         0         0         0         0         0
         0         0         0         0         0         0         0         0
         0         0         0         0         0         0         0         0
         0         0         0         0         0         0         0         0
         0         0         0         0         0         0         0         0
         0         0         0         0         0         0         0         0
         0         0         0         0         0         0         0         0
         0         0         0         0         0         0         0         0
         0         0         0         0         0         0         0         0
         0         0         0         0         0         0         0         0
         0         0         0         0         0         0         0         0
         0         0         0         0         0         0         0         0
         0         0         0         0         0         0         0         0
         0         0         0         0         0         0         0         0
         0         0         0         0         0         0         0         0
         0         0         0         0         0         0         0         0
         0         0         0         0         0         0         0         0
         0         0         0         0         0         0         0         0
         0         0         0         0         0         0         0         0
         0         0         0         0         0         0         0         0
         0         0         0         0         0         0         0         0
         0         0         0         0         0         0         0         0
         0         0         0         0         0         0         0         0
         0         0         0         0         0         0         0         0
         0         0         0         0         0         0         0         0
         0         0         0         0         0         0         0         0
         0         0         0         0         0         0         0         0
         0         0         0         0         0         0         0         0
         0         0         0         0         0         0         0         0
         0         0         0         0         0         0         0         0
         0         0         0         0         0         0         0         0
         0         0         0         0         0         0         0         0
         0         0         0         0         0         0         0         0
         0         0         0         0         0         0         0         0
         0         0         0         0         0         0         0         0
         0         0         0         0         0         0         0         0
         0         0         0         0         0         0         0         0
         0         0         0         0         0         0         0         0
         0         0         0         0         0         0         0         0
         0         0         0         0         0         0         0         0
         0         0         0         0         0         0         0         0
         0         0         0         0         0         0         0         0
         0         0         0         0         0         0         0         0
         0         0         0         0         0         0         0         0
         0         0         0         0         0         0         0         0
         0         0         0         0         0         0         0         0
         0         0         0         0         0         0         0         0
         0         0         0         0         0         0         0         0
         0         0         0         0         0         0         0         0
         0         0         0         0         0         0         0         0
         0         0         0         0         0         0         0         0
         0         0         0         0         0         0         0         0
         0         0         0         0         0         0         0         0
         0         0         0         0         0         0         0         0
         0         0         0         0         0         0         0         0
         0         0         0         0         0         0         0         0
         0         0         0         0         0         0         0         0
         0         0         0         0         0         0         0         0
         0         0         0         0         0         0         0         0
         0         0         0         0         0         0         0         0
         0         0         0         0         0         0         0         0
         0         0         0         0         0         0         0         0
         0         0         0         0         0         0         0         0
         0         0         0         0         0         0         0         0
         0         0         0         0         0         0         0         0
         0         0         0         0         0         0         0         0
         0         0         0         0         0         0         0         0
         0         0         0         0         0         0         0         0
         0         0         0         0         0         0         0         0
         0         0         0         0         0         0         0         0
         0         0         0         0         0         0         0         0
         0         0         0         0         0         0         0         0
         0         0         0         0         0         0         0         0
         0         0         0         0         0         0         0         0
         0         0         0         0         0         0         0         0
         0         0         0         0         0         0         0         0
         0         0         0         0         0         0         0         0
         0         0         0         0         0         0         0         0
         0         0         0         0         0         0         0         0
         0         0         0         0         0         0         0         0
         0         0         0         0         0         0         0         0
         0         0         0         0         0         0         0         0
         0         0         0         0         0         0         0         0
         0         0         0         0         0         0         0         0
         0         0         0         0         0         0         0         0
         0         0         0         0         0         0         0         0
         0         0         0         0         0         0         0         0
         0         0         0         0         0         0         0         0
         0         0         0         0         0         0         0         0
         0         0         0         0         0         0         0         0
         0         0         0         0         0         0         0         0
         0         0         0         0         0         0         0         0
         0         0         0         0         0         0         0         0
         0         0         0         0         0         0         0         0
         0         0         0         0         0         0         0         0
         0         0         0         0         0         0         0         0
         0         0         0         0         0         0         0         0
         0         0         0         0         0         0         0         0
         0         0         0         0         0         0         0         0
         0         0         0         0         0         0         0         0
         0         0         0         0         0         0         0         0
         0         0         0         0         0         0         0         0
         0         0         0         0         0         0         0         0
         0         0         0         0         0         0         0         0
         0         0         0         0         0         0         0         0
         0         0         0         0         0         0         0         0
         0         0         0         0         0         0         0         0
         0         0         0         0         0         0         0         0
         0         0         0         0         0         0         0         0
         0         0         0         0         0         0         0         0
         0         0         0         0         0         0         0         0
         0         0         0         0         0         0         0         0
         0         0         0         0         0         0         0         0
         0         0         0         0         0         0         0         0
         0         0         0         0         0         0         0         0
         0         0         0         0         0         0         0         0
         0         0         0         0         0         0         0         0
         0         0         0         0         0         0         0         0
         0         0         0         0         0         0         0         0
         0         0         0         0         0         0         0         0
         0         0         0         0         0         0         0         0
         0         0         0         0         0         0         0         0
         0         0         0         0         0         0         0         0
         0         0         0         0         0         0         0         0
         0         0         0         0         0         0         0         0
         0         0         0         0         0         0         0         0
         0         0         0         0         0         0         0         0
         0         0         0         0         0         0         0         0
         0         0         0         0         0         0         0         0
         0         0         0         0         0         0         0         0
         0         0         0         0         0         0         0         0
         0         0         0         0         0         0         0         0
         0         0         0         0         0         0         0         0
         0         0         0         0         0         0         0         0
         0         0         0         0         0         0         0         0
         0         0         0         0         0         0         0         0
         0         0         0         0         0         0         0         0
         0         0         0         0         0         0         0         0
         0         0         0         0         0         0         0         0
         0         0         0         0         0         0         0         0
         0         0         0         0         0         0         0         0
         0         0         0         0         0         0         0         0
         0         0         0         0         0         0         0         0
         0         0         0         0         0         0         0         0
         0         0         0         0         0         0         0         0
         0         0         0         0         0         0         0         0
         0         0         0         0         0         0         0         0
         0         0         0         0         0         0         0         0
         0         0         0         0         0         0         0         0
         0         0         0         0         0         0         0         0
         0         0         0         0         0         0         0         0
         0         0         0         0         0         0         0         0
         0         0         0         0         0         0         0         0
         0         0         0         0         0         0         0         0
         0         0         0         0         0         0         0         0
         0         0         0         0         0         0         0         0
         0         0         0         0         0         0         0         0
         0         0         0         0         0         0         0         0
         0         0         0         0         0         0         0         0
         0         0         0         0         0         0         0         0
         0         0         0         0         0         0         0         0
         0         0         0         0         0         0         0         0
         0         0         0         0         0         0         0         0
         0         0         0         0         0         0         0         0
         0         0         0         0         0         0         0         0
         0         0         0         0         0         0         0         0
         0         0         0         0         0         0         0         0
         0         0         0         0         0         0         0         0
         0         0         0         0         0         0         0         0
         0         0         0         0         0         0         0         0
         0         0         0         0         0         0         0         0
         0         0         0         0         0         0         0         0
         0         0         0         0         0         0         0         0
         0         0         0         0         0         0         0         0
         0         0         0         0         0         0         0         0
         0         0         0         0         0         0         0         0
         0         0         0         0         0         0         0         0
         0         0         0         0         0         0         0         0
         0         0         0         0         0         0         0         0
         0         0         0         0         0         0         0         0
         0         0         0         0         0         0         0         0
         0         0         0         0         0         0         0         0
         0         0         0         0         0         0         0         0
         0         0         0         0         0         0         0         0
         0         0         0         0         0         0         0         0
         0         0         0         0         0         0         0         0
         0         0         0         0         0         0         0         0
         0         0         0         0         0         0         0         0
         0         0         0         0         0         0         0         0
         0         0         0         0         0         0         0         0
         0         0         0         0         0         0         0         0
         0         0         0         0         0         0         0         0
         0         0         0         0         0         0         0         0
         0         0         0         0         0         0         0         0
         0         0         0         0         0         0         0         0
         0         0         0         0         0         0         0         0
         0         0         0         0         0         0         0         0
         0         0         0         0         0         0         0         0
         0         0         0         0         0         0         0         0
         0         0         0         0         0         0         0         0
         0         0         0         0         0         0         0         0
         0         0         0         0         0         0         0         0
         0         0         0         0         0         0         0         0
         0         0         0         0         0         0         0         0
         0         0         0         0         0         0         0         0
         0         0         0         0         0         0         0         0
         0         0         0         0         0         0         0         0
         0         0         0         0         0         0         0         0
         0         0         0         0         0         0         0         0
         0         0         0         0         0         0         0         0
         0         0         0         0         0         0         0         0
         0         0         0         0         0         0         0         0
         0         0         0         0         0         0         0         0
         0         0         0         0         0         0         0         0
         0         0         0         0         0         0         0         0
         0         0         0         0         0         0         0         0
         0         0         0         0         0         0         0         0
         0         0         0         0         0         0         0         0
         0         0         0         0         0         0         0         0
         0         0         0         0         0         0         0         0
         0         0         0         0         0         0         0         0
         0         0         0         0         0         0         0         0
         0         0         0         0         0         0         0         0
         0         0         0         0         0         0         0         0
         0         0         0         0         0         0         0         0
         0         0         0         0         0         0         0         0
         0         0         0         0         0         0         0         0
         0         0         0         0         0         0         0         0
         0         0         0         0         0         0         0         0
         0         0         0         0         0         0         0         0
         0         0         0         0         0         0         0         0
         0         0         0         0         0         0         0         0
         0         0         0         0         0         0         0         0
         0         0         0         0         0         0         0         0
         0         0         0         0         0         0         0         0
         0         0         0         0         0         0         0         0
         0         0         0         0         0         0         0         0
         0         0         0         0         0         0         0         0
         0         0         0         0         0         0         0         0
         0         0         0         0         0         0         0         0
         0         0         0         0         0         0         0         0
         0         0         0         0         0         0         0         0
         0         0         0         0         0         0         0         0
         0         0         0         0         0         0         0         0
         0         0         0         0         0         0         0         0
         0         0         0         0         0         0         0         0
         0         0         0         0         0         0         0         0
         0         0         0         0         0         0         0         0
         0         0         0         0         0         0         0         0
         0         0         0         0         0         0         0         0
         0         0         0         0         0         0         0         0
         0         0         0         0         0         0         0         0
         0         0         0         0         0         0         0         0
         0         0         0         0         0         0         0         0
         0         0         0         0         0         0         0         0
         0         0         0         0         0         0         0         0
         0         0         0         0         0         0         0         0
         0         0         0         0         0         0         0         0
         0         0         0         0         0         0         0         0
         0         0         0         0         0         0         0         0
         0         0         0         0         0         0         0         0
         0         0         0         0         0         0         0         0
         0         0         0         0         0         0         0         0
         0         0         0         0         0         0         0         0
         0         0         0         0         0         0         0         0
         0         0         0         0         0         0         0         0
         0         0         0         0         0         0         0         0
         0         0         0         0         0         0         0         0
         0         0         0         0         0         0         0         0
         0         0         0         0         0         0         0         0
         0         0         0         0         0         0         0         0
         0         0         0         0         0         0         0         0
         0         0         0         0         0         0         0         0
         0         0         0         0         0         0         0         0
         0         0         0         0         0         0         0         0
         0         0         0         0         0         0         0         0
         0         0         0         0         0         0         0         0
         0         0         0         0         0         0         0         0
         0         0         0         0         0         0         0         0
         0         0         0         0         0         0         0         0
         0         0         0         0         0         0         0         0
         0         0         0         0         0         0         0         0
         0         0         0         0         0         0         0         0
         0         0         0         0         0         0         0         0
         0         0         0         0         0         0         0         0
         0         0         0         0         0         0         0         0
         0         0         0         0         0         0         0         0
         0         0         0         0         0         0         0         0
         0         0         0         0         0         0         0         0
         0         0         0         0         0         0         0         0
         0         0         0         0         0         0         0         0
         0         0         0         0         0         0         0         0
         0         0         0         0         0         0         0         0
         0         0         0         0         0         0         0         0
         0         0         0         0         0         0         0         0
         0         0         0         0         0         0         0         0
         0         0         0         0         0         0         0         0
         0         0         0         0         0         0         0         0
         0         0         0         0         0         0         0         0
         0         0         0         0         0         0         0         0
         0         0         0         0         0         0         0         0
         0         0         0         0         0         0         0         0
         0         0         0         0         0         0         0         0
         0         0         0         0         0         0         0         0
         0         0         0         0         0         0         0         0
         0         0         0         0         0         0         0         0
         0         0         0         0         0         0         0         0
         0         0         0         0         0         0         0         0
         0         0         0         0         0         0         0         0
         0         0         0         0         0         0         0         0
         0         0         0         0         0         0         0         0
         0         0         0         0         0         0         0         0
         0         0         0         0         0         0         0         0
         0         0         0         0         0         0         0         0
         0         0         0         0         0         0         0         0
         0         0         0         0         0         0         0         0
         0         0         0         0         0         0         0         0
         0         0         0         0         0         0         0         0
         0         0         0         0         0         0         0         0
         0         0         0         0         0         0         0         0
         0         0         0         0         0         0         0         0
         0         0         0         0         0         0         0         0
         0         0         0         0         0         0         0         0
         0         0         0         0         0         0         0         0
         0         0         0         0         0         0         0         0
         0         0         0         0         0         0         0         0
         0         0         0         0         0         0         0         0
         0         0         0         0         0         0         0         0
         0         0         0         0         0         0         0         0
         0         0         0         0         0         0         0         0
         0         0         0         0         0         0         0         0
         0         0         0         0         0         0         0         0
         0         0         0         0         0         0         0         0
         0         0         0         0         0         0         0         0
         0         0         0         0         0         0         0         0
         0         0         0         0         0         0         0         0
         0         0         0         0         0         0         0         0
         0         0         0         0         0         0         0         0
         0         0         0         0         0         0         0         0
         0         0         0         0         0         0         0         0
         0         0         0         0         0         0         0         0
         0         0         0         0         0         0         0         0
         0         0         0         0         0         0         0         0
         0         0         0         0         0         0         0         0
         0         0         0         0         0         0         0         0
         0         0         0         0         0         0         0         0
         0         0         0         0         0         0         0         0
         0         0         0         0         0         0         0         0
         0         0         0         0         0         0         0         0
         0         0         0         0         0         0         0         0
         0         0         0         0         0         0         0         0
         0         0         0         0         0         0         0         0
         0         0         0         0         0         0         0         0
         0         0         0         0         0         0         0         0
         0         0         0         0         0         0         0         0
         0         0         0         0         0         0         0         0
         0         0         0         0         0         0         0         0
         0         0         0         0         0         0         0         0
         0         0         0         0         0         0         0         0
         0         0         0         0         0         0         0         0
         0         0         0         0         0         0         0         0
         0         0         0         0         0         0         0         0
         0         0         0         0         0         0         0         0
         0         0         0         0         0         0         0         0
         0         0         0         0         0         0         0         0
         0         0         0         0         0         0         0         0
         0         0         0         0         0         0         0         0
         0         0         0         0         0         0         0         0
         0         0         0         0         0         0         0         0
         0         0         0         0         0         0         0         0
         0         0         0         0         0         0         0         0
         0         0         0         0         0         0         0         0
         0         0         0         0         0         0         0         0
         0         0         0         0         0         0         0         0
         0         0         0         0         0         0         0         0
         0         0         0         0         0         0         0         0
         0         0         0         0         0         0         0         0
         0         0         0         0         0         0         0         0
         0         0         0         0         0         0         0         0
         0         0         0         0         0         0         0         0
         0         0         0         0         0         0         0         0
         0         0         0         0         0         0         0         0
         0         0         0         0         0         0         0         0
         0         0         0         0         0         0         0         0
         0         0         0         0         0         0         0         0
         0         0         0         0         0         0         0         0
         0         0         0         0         0         0         0         0
         0         0         0         0         0         0         0         0
         0         0         0         0         0         0         0         0
         0         0         0         0         0         0         0         0
         0         0         0         0         0         0         0         0
         0         0         0         0         0         0         0         0
         0         0         0         0         0         0         0         0
         0         0         0         0         0         0         0         0
         0         0         0         0         0         0         0         0
         0         0         0         0         0         0         0         0
         0         0         0         0         0         0         0         0
         0         0         0         0         0         0         0         0
         0         0         0         0         0         0         0         0
         0         0         0         0         0         0         0         0
         0         0         0         0         0         0         0         0
         0         0         0         0         0         0         0         0
         0         0         0         0         0         0         0         0
         0         0         0         0         0         0         0         0
         0         0         0         0         0         0         0         0
         0         0         0         0         0         0         0         0
         0         0         0         0         0         0         0         0
         0         0         0         0         0         0         0         0
         0         0         0         0         0         0         0         0
         0         0         0         0         0         0         0         0
         0         0         0         0         0         0         0         0
         0         0         0         0         0         0         0         0
         0         0         0         0         0         0         0         0
         0         0         0         0         0         0         0         0
         0         0         0         0         0         0         0         0
         0         0         0         0         0         0         0         0
         0         0         0         0         0         0         0         0
         0         0         0         0         0         0         0         0
         0         0         0         0         0         0         0         0
         0         0         0         0         0         0         0         0
         0         0         0         0         0         0         0         0
         0         0         0         0         0         0         0         0
         0         0         0         0         0         0         0         0
         0         0         0         0         0         0         0         0
         0         0         0         0         0         0         0         0
         0         0         0         0         0         0         0         0
         0         0         0         0         0         0         0         0
         0         0         0         0         0         0         0         0
         0         0         0         0         0         0         0         0
         0         0         0         0         0         0         0         0
         0         0         0         0         0         0         0         0
         0         0         0         0         0         0         0         0
         0         0         0         0         0         0         0         0
         0         0         0         0         0         0         0         0
         0         0         0         0         0         0         0         0
         0         0         0         0         0         0         0         0
         0         0         0         0         0         0         0         0
         0         0         0         0         0         0         0         0
         0         0         0         0         0         0         0         0
         0         0         0         0         0         0         0         0
         0         0         0         0         0         0         0         0
         0         0         0         0         0         0         0         0
         0         0         0         0         0         0         0         0
         0         0         0         0         0         0         0         0
         0         0         0         0         0         0         0         0
         0         0         0         0         0         0         0         0
         0         0         0         0         0         0         0         0
         0         0         0         0         0         0         0         0
         0         0         0         0         0         0         0         0
         0         0         0         0         0         0         0         0
         0         0         0         0         0         0         0         0
         0         0         0         0         0         0         0         0
         0         0         0         0         0         0         0         0
         0         0         0         0         0         0         0         0
         0         0         0         0         0         0         0         0
         0         0         0         0         0         0         0         0
         0         0         0         0         0         0         0         0
         0         0         0         0         0         0         0         0
         0         0         0         0         0         0         0         0
         0         0         0         0         0         0         0         0
         0         0         0         0         0         0         0         0
         0         0         0         0         0         0         0         0
         0         0         0         0         0         0         0         0
         0         0         0         0         0         0         0         0
         0         0         0         0         0         0         0         0
         0         0         0         0         0         0         0         0
         0         0         0         0         0         0         0         0
         0         0         0         0         0         0         0         0
         0         0         0         0         0         0         0         0
         0         0         0         0         0         0         0         0
         0         0         0         0         0         0         0         0
         0         0         0         0         0         0         0         0
         0         0         0         0         0         0         0         0
         0         0         0         0         0         0         0         0
         0         0         0         0         0         0         0         0
         0         0         0         0         0         0         0         0
         0         0         0         0         0         0         0         0
         0         0         0         0         0         0         0         0
         0         0         0         0         0         0         0         0
         0         0         0         0         0         0         0         0
         0         0         0         0         0         0         0         0
         0         0         0         0         0         0         0         0
         0         0         0         0         0         0         0         0
         0         0         0         0         0         0         0         0
         0         0         0         0         0         0         0         0
         0         0         0         0         0         0         0         0
         0         0         0         0         0         0         0         0
         0         0         0         0         0         0         0         0
         0         0         0         0         0         0         0         0
         0         0         0         0         0         0         0         0
         0         0         0         0         0         0         0         0
         0         0         0         0         0         0         0         0
         0         0         0         0         0         0         0         0
         0         0         0         0         0         0         0         0
         0         0         0         0         0         0         0         0
         0         0         0         0         0         0         0         0
         0         0         0         0         0         0         0         0
         0         0         0         0         0         0         0         0
         0         0         0         0         0         0         0         0
         0         0         0         0         0         0         0         0
         0         0         0         0         0         0         0         0
         0         0         0         0         0         0         0         0
         0         0         0         0         0         0         0         0
         0         0         0         0         0         0         0         0
         0         0         0         0         0         0         0         0
         0         0         0         0         0         0         0         0
         0         0         0         0         0         0         0         0
         0         0         0         0         0         0         0         0
         0         0         0         0         0         0         0         0
         0         0         0         0         0         0         0         0
         0         0         0         0         0         0         0         0
         0         0         0         0         0         0         0         0
         0         0         0         0         0         0         0         0
         0         0         0         0         0         0         0         0
         0         0         0         0         0         0         0         0
         0         0         0         0         0         0         0         0
         0         0         0         0         0         0         0         0
         0         0         0         0         0         0         0         0
         0         0         0         0         0         0         0         0
         0         0         0         0         0         0         0         0
         0         0         0         0         0         0         0         0
         0         0         0         0         0         0         0         0
         0         0         0         0         0         0         0         0
         0         0         0         0         0         0         0         0
         0         0         0         0         0         0         0         0
         0         0         0         0         0         0         0         0
         0         0         0         0         0         0         0         0
         0         0         0         0         0         0         0         0
         0         0         0         0         0         0         0         0
         0         0         0         0         0         0         0         0
         0         0         0         0         0         0         0         0
         0         0         0         0         0         0         0         0
         0         0         0         0         0         0         0         0
         0         0         0         0         0         0         0         0
         0         0         0         0         0         0         0         0
         0         0         0         0         0         0         0         0
         0         0         0         0         0         0         0         0
         0         0         0         0         0         0         0         0
         0         0         0         0         0         0         0         0
         0         0         0         0         0         0         0         0
         0         0         0         0         0         0         0         0
         0         0         0         0         0         0         0         0
         0         0         0         0         0         0         0         0
         0         0         0         0         0         0         0         0
         0         0         0         0         0         0         0         0
         0         0         0         0         0         0         0         0
         0         0         0         0         0         0         0         0
         0         0         0         0         0         0         0         0
         0         0         0         0         0         0         0         0
         0         0         0         0         0         0         0         0
         0         0         0         0         0         0         0         0
         0         0         0         0         0         0         0         0
         0         0         0         0         0         0         0         0
         0         0         0         0         0         0         0         0
         0         0         0         0         0         0         0         0
         0         0         0         0         0         0         0         0
         0         0         0         0         0         0         0         0
         0         0         0         0         0         0         0         0
         0         0         0         0         0         0         0         0
         0         0         0         0         0         0         0         0
         0         0         0         0         0         0         0         0
         0         0         0         0         0         0         0         0
         0         0         0         0         0         0         0         0
         0         0         0         0         0         0         0         0
         0         0         0         0         0         0         0         0
         0         0         0         0         0         0         0         0
         0         0         0         0         0         0         0         0
         0         0         0         0         0         0         0         0
         0         0         0         0         0         0         0         0
         0         0         0         0         0         0         0         0
         0         0         0         0         0         0         0         0
         0         0         0         0         0         0         0         0
         0         0         0         0         0         0         0         0
         0         0         0         0         0         0         0         0
         0         0         0         0         0         0         0         0
         0         0         0         0         0         0         0         0
         0         0         0         0         0         0         0         0
         0         0         0         0         0         0         0         0
         0         0         0         0         0         0         0         0
         0         0         0         0         0         0         0         0
         0         0         0         0         0         0         0         0
         0         0         0         0         0         0         0         0
         0         0         0         0         0         0         0         0
         0         0         0         0         0         0         0         0
         0         0         0         0         0         0         0         0
         0         0         0         0         0         0         0         0
         0         0         0         0         0         0         0         0
         0         0         0         0         0         0         0         0
         0         0         0         0         0         0         0         0
         0         0         0         0         0         0         0         0
         0         0         0         0         0         0         0         0
         0         0         0         0         0         0         0         0
         0         0         0         0         0         0         0         0
         0         0         0         0         0         0         0         0
         0         0         0         0         0         0         0         0
         0         0         0         0         0         0         0         0
         0         0         0         0         0         0         0         0
         0         0         0         0         0         0         0         0
         0         0         0         0         0         0         0         0
         0         0         0         0         0         0         0         0
         0         0         0         0         0         0         0         0
         0         0         0         0         0         0         0         0
         0         0         0         0         0         0         0         0
         0         0         0         0         0         0         0         0
         0         0         0         0         0         0         0         0
         0         0         0         0         0         0         0         0
         0         0         0         0         0         0         0         0
         0         0         0         0         0         0         0         0
         0         0         0         0         0         0         0         0
         0         0         0         0         0         0         0         0
         0         0         0         0         0         0         0         0
         0         0         0         0         0         0         0         0
         0         0         0         0         0         0         0         0
         0         0         0         0         0         0         0         0
         0         0         0         0         0         0         0         0
         0         0         0         0         0         0         0         0
         0         0         0         0         0         0         0         0
         0         0         0         0         0         0         0         0
         0         0         0         0         0         0         0         0
         0         0         0         0         0         0         0         0
         0         0         0         0         0         0         0         0
         0         0         0         0         0         0         0         0
         0         0         0         0         0         0         0         0
         0         0         0         0         0         0         0         0
         0         0         0         0         0         0         0         0
         0         0         0         0         0         0         0         0
         0         0         0         0         0         0         0         0
         0         0         0         0         0         0         0         0
         0         0         0         0         0         0         0         0
         0         0         0         0         0         0         0         0
         0         0         0         0         0         0         0         0
         0         0         0         0         0         0         0         0
         0         0         0         0         0         0         0         0
         0         0         0         0         0         0         0         0
         0         0         0         0         0         0         0         0
         0         0         0         0         0         0         0         0
         0         0         0         0         0         0         0         0
         0         0         0         0         0         0         0         0
         0         0         0         0         0         0         0         0
         0         0         0         0         0         0         0         0
         0         0         0         0         0         0         0         0
         0         0         0         0         0         0         0         0
         0         0         0         0         0         0         0         0
         0         0         0         0         0         0         0         0
         0         0         0         0         0         0         0         0
         0         0         0         0         0         0         0         0
         0         0         0         0         0         0         0         0
         0         0         0         0         0         0         0         0
         0         0         0         0         0         0         0         0
         0         0         0         0         0         0         0         0
         0         0         0         0         0         0         0         0
         0         0         0         0         0         0         0         0
         0         0         0         0         0         0         0         0
         0         0         0         0         0         0         0         0
         0         0         0         0         0         0         0         0
         0         0         0         0         0         0         0         0
         0         0         0         0         0         0         0         0
         0         0         0         0         0         0         0         0
         0         0         0         0         0         0         0         0
         0         0         0         0         0         0         0         0
         0         0         0         0         0         0         0         0
         0         0         0         0         0         0         0         0
         0         0         0         0         0         0         0         0
         0         0         0         0         0         0         0         0
         0         0         0         0         0         0         0         0
         0         0         0         0         0         0         0         0
         0         0         0         0         0         0         0         0
         0         0         0         0         0         0         0         0
         0         0         0         0         0         0         0         0
         0         0         0         0         0         0         0         0
         0         0         0         0         0         0         0         0
         0         0         0         0         0         0         0         0
         0         0         0         0         0         0         0         0
         0         0         0         0         0         0         0         0
         0         0         0         0         0         0         0         0
         0         0         0         0         0         0         0         0
         0         0         0         0         0         0         0         0
         0         0         0         0         0         0         0         0
         0         0         0         0         0         0         0         0
         0         0         0         0         0         0         0         0
         0         0         0         0         0         0         0         0
         0         0         0         0         0         0         0         0
         0         0         0         0         0         0         0         0
         0         0         0         0         0         0         0         0
         0         0         0         0         0         0         0         0
         0         0         0         0         0         0         0         0
         0         0         0         0         0         0         0         0
         0         0         0         0         0         0         0         0
         0         0         0         0         0         0         0         0
         0         0         0         0         0         0         0         0
         0         0         0         0         0         0         0         0
         0         0         0         0         0         0         0         0
         0         0         0         0         0         0         0         0
         0         0         0         0         0         0         0         0
         0         0         0         0         0         0         0         0
         0         0         0         0         0         0         0         0
         0         0         0         0         0         0         0         0
         0         0         0         0         0         0         0         0
         0         0         0         0         0         0         0         0
         0         0         0         0         0         0         0         0
         0         0         0         0         0         0         0         0
         0         0         0         0         0         0         0         0
         0         0         0         0         0         0         0         0
         0         0         0         0         0         0         0         0
         0         0         0         0         0         0         0         0
         0         0         0         0         0         0         0         0
         0         0         0         0         0         0         0         0
         0         0         0         0         0         0         0         0
         0         0         0         0         0         0         0         0
         0         0         0         0         0         0         0         0
         0         0         0         0         0         0         0         0
         0         0         0         0         0         0         0         0
         0         0         0         0         0         0         0         0
         0         0         0         0         0         0         0         0
         0         0         0         0         0         0         0         0
         0         0         0         0         0         0         0         0
         0         0         0         0         0         0         0         0
         0         0         0         0         0         0         0         0
         0         0         0         0         0         0         0         0
         0         0         0         0         0         0         0         0
         0         0         0         0         0         0         0         0
         0         0         0         0         0         0         0         0
         0         0         0         0         0         0         0         0
         0         0         0         0         0         0         0         0
         0         0         0         0         0         0         0         0
         0         0         0         0         0         0         0         0
         0         0         0         0         0         0         0         0
         0         0         0         0         0         0         0         0
         0         0         0         0         0         0         0         0
         0         0         0         0         0         0         0         0
         0         0         0         0         0         0         0         0
         0         0         0         0         0         0         0         0
         0         0         0         0         0         0         0         0
         0         0         0         0         0         0         0         0
         0         0         0         0         0         0         0         0
         0         0         0         0         0         0         0         0
         0         0         0         0         0         0         0         0
         0         0         0         0         0         0         0         0
         0         0         0         0         0         0         0         0
         0         0         0         0         0         0         0         0
         0         0         0         0         0         0         0         0
         0         0         0         0         0         0         0         0
         0         0         0         0         0         0         0         0
         0         0         0         0         0         0         0         0
         0         0         0         0         0         0         0         0
         0         0         0         0         0         0         0         0
         0         0         0         0         0         0         0         0
         0         0         0         0         0         0         0         0
         0         0         0         0         0         0         0         0
         0         0         0         0         0         0         0         0
         0         0         0         0         0         0         0         0
         0         0         0         0         0         0         0         0
         0         0         0         0         0         0         0         0
         0         0         0         0         0         0         0         0
         0         0         0         0         0         0         0         0
         0         0         0         0         0         0         0         0
         0         0         0         0         0         0         0         0
         0         0         0         0         0         0         0         0
         0         0         0         0         0         0         0         0
         0         0         0         0         0         0         0         0
         0         0         0         0         0         0         0         0
         0         0         0         0         0         0         0         0
         0         0         0         0         0         0         0         0
         0         0         0         0         0         0         0         0
         0         0         0         0         0         0         0         0
         0         0         0         0         0         0         0         0
         0         0         0         0         0         0         0         0
         0         0         0         0         0         0         0         0
         0         0         0         0         0         0         0         0
         0         0         0         0         0         0         0         0
         0         0         0         0         0         0         0         0
         0         0         0         0         0         0         0         0
         0         0         0         0         0         0         0         0
         0         0         0         0         0         0         0         0
         0         0         0         0         0         0         0         0
         0         0         0         0         0         0         0         0
         0         0         0         0         0         0         0         0
         0         0         0         0         0         0         0         0
         0         0         0         0         0         0         0         0
         0         0         0         0         0         0         0         0
         0         0         0         0         0         0         0         0
         0         0         0         0         0         0         0         0
         0         0         0         0         0         0         0         0
         0         0         0         0         0         0         0         0
         0         0         0         0         0         0         0         0
         0         0         0         0         0         0         0         0
         0         0         0         0         0         0         0         0
         0         0         0         0         0         0         0         0
         0         0         0         0         0         0         0         0
         0         0         0         0         0         0         0         0
         0         0         0         0         0         0         0         0
         0         0         0         0         0         0         0         0
         0         0         0         0         0         0         0         0
         0         0         0         0         0         0         0         0
         0         0         0         0         0         0         0         0
         0         0         0         0         0         0         0         0
         0         0         0         0         0         0         0         0
         0         0         0         0         0         0         0         0
         0         0         0         0         0         0         0         0
         0         0         0         0         0         0         0         0
         0         0         0         0         0         0         0         0
         0         0         0         0         0         0         0         0
         0         0         0         0         0         0         0         0
         0         0         0         0         0         0         0         0
         0         0         0         0         0         0         0         0
         0         0         0         0         0         0         0         0
         0         0         0         0         0         0         0         0
         0         0         0         0         0         0         0         0
         0         0         0         0         0         0         0         0
         0         0         0         0         0         0         0         0
         0         0         0         0         0         0         0         0
         0         0         0         0         0         0         0         0
         0         0         0         0         0         0         0         0
         0         0         0         0         0         0         0         0
         0         0         0         0         0         0         0         0
         0         0         0         0         0         0         0         0
         0         0         0         0         0         0         0         0
         0         0         0         0         0         0         0         0
         0         0         0         0         0         0         0         0
         0         0         0         0         0         0         0         0
         0         0         0         0         0         0         0         0
         0         0         0         0         0         0         0         0
         0         0         0         0         0         0         0         0
         0         0         0         0         0         0         0         0
         0         0         0         0         0         0         0         0
         0         0         0         0         0         0         0         0
         0         0         0         0         0         0         0         0
         0         0         0         0         0         0         0         0
         0         0         0         0         0         0         0         0
         0         0         0         0         0         0         0         0
         0         0         0         0         0         0         0         0
         0         0         0         0         0         0         0         0
         0         0         0         0         0         0         0         0
         0         0         0         0         0         0         0         0
         0         0         0         0         0         0         0         0
         0         0         0         0         0         0         0         0
         0         0         0         0         0         0         0         0
         0         0         0         0         0         0         0         0
         0         0         0         0         0         0         0         0
         0         0         0         0         0         0         0         0
         0         0         0         0         0         0         0         0
         0         0         0         0         0         0         0         0
         0         0         0         0         0         0         0         0
         0         0         0         0         0         0         0         0
         0         0         0         0         0         0         0         0
         0         0         0         0         0         0         0         0
         0         0         0         0         0         0         0         0
         0         0         0         0         0         0         0         0
         0         0         0         0         0         0         0         0
         0         0         0         0         0         0         0         0
         0         0         0         0         0         0         0         0
         0         0         0         0         0         0         0         0
         0         0         0         0         0         0         0         0
         0         0         0         0         0         0         0         0
         0         0         0         0         0         0         0         0
         0         0         0         0         0         0         0         0
         0         0         0         0         0         0         0         0
         0         0         0         0         0         0         0         0
         0         0         0         0         0         0         0         0
         0         0         0         0         0         0         0         0
         0         0         0         0         0         0         0         0
         0         0         0         0         0         0         0         0
         0         0         0         0         0         0         0         0
         0         0         0         0         0         0         0         0
         0         0         0         0         0         0         0         0
         0         0         0         0         0         0         0         0
         0         0         0         0         0         0         0         0
         0         0         0         0         0         0         0         0
         0         0         0         0         0         0         0         0
         0         0         0         0         0         0         0         0
         0         0         0         0         0         0         0         0
         0         0         0         0         0         0         0         0
         0         0         0         0         0         0         0         0
         0         0         0         0         0         0         0         0
         0         0         0         0         0         0         0         0
         0         0         0         0         0         0         0         0
         0         0         0         0         0         0         0         0
         0         0         0         0         0         0         0         0
         0         0         0         0         0         0         0         0
         0         0         0         0         0         0         0         0
         0         0         0         0         0         0         0         0
         0         0         0         0         0         0         0         0
         0         0         0         0         0         0         0         0
         0         0         0         0         0         0         0         0
         0         0         0         0         0         0         0         0
         0         0         0         0         0         0         0         0
         0         0         0         0         0         0         0         0
         0         0         0         0         0         0         0         0
         0         0         0         0         0         0         0         0
         0         0         0         0         0         0         0         0
         0         0         0         0         0         0         0         0
         0         0         0         0         0         0         0         0
         0         0         0         0         0         0         0         0
         0         0         0         0         0         0         0         0
         0         0         0         0         0         0         0         0
         0         0         0         0         0         0         0         0
         0         0         0         0         0         0         0         0
         0         0         0         0         0         0         0         0
         0         0         0         0         0         0         0         0
         0         0         0         0         0         0         0         0
         0         0         0         0         0         0         0         0
         0         0         0         0         0         0         0         0
         0         0         0         0         0         0         0         0
         0         0         0         0         0         0         0         0
         0         0         0         0         0         0         0         0
         0         0         0         0         0         0         0         0
         0         0         0         0         0         0         0         0
         0         0         0         0         0         0         0         0
         0         0         0         0         0         0         0         0
         0         0         0         0         0         0         0         0
         0         0         0         0         0         0         0         0
         0         0         0         0         0         0         0         0
         0         0         0         0         0         0         0         0
         0         0         0         0         0         0         0         0
         0         0         0         0         0         0         0         0
         0         0         0         0         0         0         0         0
         0         0         0         0         0         0         0         0
         0         0         0         0         0         0         0         0
         0         0         0         0         0         0         0         0
         0         0         0         0         0         0         0         0
         0         0         0         0         0         0         0         0
         0         0         0         0         0         0         0         0
         0         0         0         0         0         0         0         0
         0         0         0         0         0         0         0         0
         0         0         0         0         0         0         0         0
         0         0         0         0         0         0         0         0
         0         0         0         0         0         0         0         0
         0         0         0         0         0         0         0         0
         0         0         0         0         0         0         0         0
         0         0         0         0         0         0         0         0
         0         0         0         0         0         0         0         0
         0         0         0         0         0         0         0         0
         0         0         0         0         0         0         0         0
         0         0         0         0         0         0         0         0
         0         0         0         0         0         0         0         0
         0         0         0         0         0         0         0         0
         0         0         0         0         0         0         0         0
         0         0         0         0         0         0         0         0
         0         0         0         0         0         0         0         0
         0         0         0         0         0         0         0         0
         0         0         0         0         0         0         0         0
         0         0         0         0         0         0         0         0
         0         0         0         0         0         0         0         0
         0         0         0         0         0         0         0         0
         0         0         0         0         0         0         0         0
         0         0         0         0         0         0         0         0
         0         0         0         0         0         0         0         0
         0         0         0         0         0         0         0         0
         0         0         0         0         0         0         0         0
         0         0         0         0         0         0         0         0
         0         0         0         0         0         0         0         0
         0         0         0         0         0         0         0         0
         0         0         0         0         0         0         0         0
         0         0         0         0         0         0         0         0
         0         0         0         0         0         0         0         0
         0         0         0         0         0         0         0         0
         0         0         0         0         0         0         0         0
         0         0         0         0         0         0         0         0
         0         0         0         0         0         0         0         0
         0         0         0         0         0         0         0         0
         0         0         0         0         0         0         0         0
         0         0         0         0         0         0         0         0
         0         0         0         0         0         0         0         0
         0         0         0         0         0         0         0         0
         0         0         0         0         0         0         0         0
         0         0         0         0         0         0         0         0
         0         0         0         0         0         0         0         0
         0         0         0         0         0         0         0         0
         0         0         0         0         0         0         0         0
         0         0         0         0         0         0         0         0
         0         0         0         0         0         0         0         0
         0         0         0         0         0         0         0         0
         0         0         0         0         0         0         0         0
         0         0         0         0         0         0         0         0
         0         0         0         0         0         0         0         0
         0         0         0         0         0         0         0         0
         0         0         0         0         0         0         0         0
         0         0         0         0         0         0         0         0
         0         0         0         0         0         0         0         0
         0         0         0         0         0         0         0         0
         0         0         0         0         0         0         0         0
         0         0         0         0         0         0         0         0
         0         0         0         0         0         0         0         0
         0         0         0         0         0         0         0         0
         0         0         0         0         0         0         0         0
         0         0         0         0         0         0         0         0
         0         0         0         0         0         0         0         0
         0         0         0         0         0         0         0         0
         0         0         0         0         0         0         0         0
         0         0         0         0         0         0         0         0
         0         0         0         0         0         0         0         0
         0         0         0         0         0         0         0         0
         0         0         0         0         0         0         0         0
         0         0         0         0         0         0         0         0
         0         0         0         0         0         0         0         0
         0         0         0         0         0         0         0         0
         0         0         0         0         0         0         0         0
         0         0         0         0         0         0         0         0
         0         0         0         0         0         0         0         0
         0         0         0         0         0         0         0         0
         0         0         0         0         0         0         0         0
         0         0         0         0         0         0         0         0
         0         0         0         0         0         0         0         0
         0         0         0         0         0         0         0         0
         0         0         0         0         0         0         0         0
         0         0         0         0         0         0         0         0
         0         0         0         0         0         0         0         0
         0         0         0         0         0         0         0         0
         0         0         0         0         0         0         0         0
         0         0         0         0         0         0         0         0
         0         0         0         0         0         0         0         0
         0         0         0         0         0         0         0         0
         0         0         0         0         0         0         0         0
         0         0         0         0         0         0         0         0
         0         0         0         0         0         0         0         0
         0         0         0         0         0         0         0         0
         0         0         0         0         0         0         0         0
         0         0         0         0         0         0         0         0
         0         0         0         0         0         0         0         0
         0         0         0         0         0         0         0         0
         0         0         0         0         0         0         0         0
         0         0         0         0         0         0         0         0
         0         0         0         0         0         0         0         0
         0         0         0         0         0         0         0         0
         0         0         0         0         0         0         0         0
         0         0         0         0         0         0         0         0
         0         0         0         0         0         0         0         0
         0         0         0         0         0         0         0         0
         0         0         0         0         0         0         0         0
         0         0         0         0         0         0         0         0
         0         0         0         0         0         0         0         0
         0         0         0         0         0         0         0         0
         0         0         0         0         0         0         0         0
         0         0         0         0         0         0         0         0
         0         0         0         0         0         0         0         0
         0         0         0         0         0         0         0         0
         0         0         0         0         0         0         0         0
         0         0         0         0         0         0         0         0
         0         0         0         0         0         0         0         0
         0         0         0         0         0         0         0         0
         0         0         0         0         0         0         0         0
         0         0         0         0         0         0         0         0
         0         0         0         0         0         0         0         0
         0         0         0         0         0         0         0         0
         0         0         0         0         0         0         0         0
         0         0         0         0         0         0         0         0
         0         0         0         0         0         0         0         0
         0         0         0         0         0         0         0         0
         0         0         0         0         0         0         0         0
         0         0         0         0         0         0         0         0
         0         0         0         0         0         0         0         0
         0         0         0         0         0         0         0         0
         0         0         0         0         0         0         0         0
         0         0         0         0         0         0         0         0
         0         0         0         0         0         0         0         0
         0         0         0         0         0         0         0         0
         0         0         0         0         0         0         0         0
         0         0         0         0         0         0         0         0
         0         0         0         0         0         0         0         0
         0         0         0         0         0         0         0         0
         0         0         0         0         0         0         0         0
         0         0         0         0         0         0         0         0
         0         0         0         0         0         0         0         0
         0         0         0         0         0         0         0         0
         0         0         0         0         0         0         0         0
         0         0         0         0         0         0         0         0
         0         0         0         0         0         0         0         0
         0         0         0         0         0         0         0         0
         0         0         0         0         0         0         0         0
         0         0         0         0         0         0         0         0
         0         0         0         0         0         0         0         0
         0         0         0         0         0         0         0         0
         0         0         0         0         0         0         0         0
         0         0         0         0         0         0         0         0
         0         0         0         0         0         0         0         0
         0         0         0         0         0         0         0         0
         0         0         0         0         0         0         0         0
         0         0         0         0         0         0         0         0
         0         0         0         0         0         0         0         0
         0         0         0         0         0         0         0         0
         0         0         0         0         0         0         0         0
         0         0         0         0         0         0         0         0
         0         0         0         0         0         0         0         0
         0         0         0         0         0         0         0         0
         0         0         0         0         0         0         0         0
         0         0         0         0         0         0         0         0
         0         0         0         0         0         0         0         0
         0         0         0         0         0         0         0         0
         0         0         0         0         0         0         0         0
         0         0         0         0         0         0         0         0
         0         0         0         0         0         0         0         0
         0         0         0         0         0         0         0         0
         0         0         0         0         0         0         0         0
         0         0         0         0         0         0         0         0
         0         0         0         0         0         0         0         0
         0         0         0         0         0         0         0         0
         0         0         0         0         0         0         0         0
         0         0         0         0         0         0         0         0
         0         0         0         0         0         0         0         0
         0         0         0         0         0         0         0         0
         0         0         0         0         0         0         0         0
         0         0         0         0         0         0         0         0
         0         0         0         0         0         0         0         0
         0         0         0         0         0         0         0         0
         0         0         0         0         0         0         0         0
         0         0         0         0         0         0         0         0
         0         0         0         0         0         0         0         0
         0         0         0         0         0         0         0         0
         0         0         0         0         0         0         0         0
         0         0         0         0         0         0         0         0
         0         0         0         0         0         0         0         0
         0         0         0         0         0         0         0         0
         0         0         0         0         0         0         0         0
         0         0         0         0         0         0         0         0
         0         0         0         0         0         0         0         0
         0         0         0         0         0         0         0         0
         0         0         0         0         0         0         0         0
         0         0         0         0         0         0         0         0
         0         0         0         0         0         0         0         0
         0         0         0         0         0         0         0         0
         0         0         0         0         0         0         0         0
         0         0         0         0         0         0         0         0
         0         0         0         0         0         0         0         0
         0         0         0         0         0         0         0         0
         0         0         0         0         0         0         0         0
         0         0         0         0         0         0         0         0
         0         0         0         0         0         0         0         0
         0         0         0         0         0         0         0         0
         0         0         0         0         0         0         0         0
         0         0         0         0         0         0         0         0
         0         0         0         0         0         0         0         0
         0         0         0         0         0         0         0         0
         0         0         0         0         0         0         0         0
         0         0         0         0         0         0         0         0
         0         0         0         0         0         0         0         0
         0         0         0         0         0         0         0         0
         0         0         0         0         0         0         0         0
         0         0         0         0         0         0         0         0
         0         0         0         0         0         0         0         0
         0         0         0         0         0         0         0         0
         0         0         0         0         0         0         0         0
         0         0         0         0         0         0         0         0
         0         0         0         0         0         0         0         0
         0         0         0         0         0         0         0         0
         0         0         0         0         0         0         0         0
         0         0         0         0         0         0         0         0
         0         0         0         0         0         0         0         0
         0         0         0         0         0         0         0         0
         0         0         0         0         0         0         0         0
         0         0         0         0         0         0         0         0
         0         0         0         0         0         0         0         0
         0         0         0         0         0         0         0         0
         0         0         0         0         0         0         0         0
         0         0         0         0         0         0         0         0
         0         0         0         0         0         0         0         0
         0         0         0         0         0         0         0         0
         0         0         0         0         0         0         0         0
         0         0         0         0         0         0         0         0
         0         0         0         0         0         0         0         0
         0         0         0         0         0         0         0         0
         0         0         0         0         0         0         0         0
         0         0         0         0         0         0         0         0
         0         0         0         0         0         0         0         0
         0         0         0         0         0         0         0         0
         0         0         0         0         0         0         0         0
         0         0         0         0         0         0         0         0
         0         0         0         0         0         0         0         0
         0         0         0         0         0         0         0         0
         0         0         0         0         0         0         0         0
         0         0         0         0         0         0         0         0
         0         0         0         0         0         0         0         0
         0         0         0         0         0         0         0         0
         0         0         0         0         0         0         0         0
         0         0         0         0         0         0         0         0
         0         0         0         0         0         0         0         0
         0         0         0         0         0         0         0         0
         0         0         0         0         0         0         0         0
         0         0         0         0         0         0         0         0
         0         0         0         0         0         0         0         0
         0         0         0         0         0         0         0         0
         0         0         0         0         0         0         0         0
         0         0         0         0         0         0         0         0
         0         0         0         0         0         0         0         0
         0         0         0         0         0         0         0         0
         0         0         0         0         0         0         0         0
         0         0         0         0         0         0         0         0
         0         0         0         0         0         0         0         0
         0         0         0         0         0         0         0         0
         0         0         0         0         0         0         0         0
         0         0         0         0         0         0         0         0
         0         0         0         0         0         0         0         0
         0         0         0         0         0         0         0         0
         0         0         0         0         0         0         0         0
         0         0         0         0         0         0         0         0
         0         0         0         0         0         0         0         0
         0         0         0         0         0         0         0         0
         0         0         0         0         0         0         0         0
         0         0         0         0         0         0         0         0
         0         0         0         0         0         0         0         0
         0         0         0         0         0         0         0         0
         0         0         0         0         0         0         0         0
         0         0         0         0         0         0         0         0
         0         0         0         0         0         0         0         0
         0         0         0         0         0         0         0         0
         0         0         0         0         0         0         0         0
         0         0         0         0         0         0         0         0
         0         0         0         0         0         0         0         0
         0         0         0         0         0         0         0         0
         0         0         0         0         0         0         0         0
         0         0         0         0         0         0         0         0
         0         0         0         0         0         0         0         0
         0         0         0         0         0         0         0         0
         0         0         0         0         0         0         0         0
         0         0         0         0         0         0         0         0
         0         0         0         0         0         0         0         0
         0         0         0         0         0         0         0         0
         0         0         0         0         0         0         0         0
         0         0         0         0         0         0         0         0
         0         0         0         0         0         0         0         0
         0         0         0         0         0         0         0         0
         0         0         0         0         0         0         0         0
         0         0         0         0         0         0         0         0
         0         0         0         0         0         0         0         0
         0         0         0         0         0         0         0         0
         0         0         0         0         0         0         0         0
         0         0         0         0         0         0         0         0
         0         0         0         0         0         0         0         0
         0         0         0         0         0         0         0         0
         0         0         0         0         0         0         0         0
         0         0         0         0         0         0         0         0
         0         0         0         0         0         0         0         0
         0         0         0         0         0         0         0         0
         0         0         0         0         0         0         0         0
         0         0         0         0         0         0         0         0
         0         0         0         0         0         0         0         0
         0         0         0         0         0         0         0         0
         0         0         0         0         0         0         0         0
         0         0         0         0         0         0         0         0
         0         0         0         0         0         0         0         0
         0         0         0         0         0         0         0         0
         0         0         0         0         0         0         0         0
         0         0         0         0         0         0         0         0
         0         0         0         0         0         0         0         0
         0         0         0         0         0         0         0         0
         0         0         0         0         0         0         0         0
         0         0         0         0         0         0         0         0
         0         0         0         0         0         0         0         0
         0         0         0         0         0         0         0         0
         0         0         0         0         0         0         0         0
         0         0         0         0         0         0         0         0
         0         0         0         0         0         0         0         0
         0         0         0         0         0         0         0         0
         0         0         0         0         0         0         0         0
         0         0         0         0         0         0         0         0
         0         0         0         0         0         0         0         0
         0         0         0         0         0         0         0         0
         0         0         0         0         0         0         0         0
         0         0         0         0         0         0         0         0
         0         0         0         0         0         0         0         0
         0         0         0         0         0         0         0         0
         0         0         0         0         0         0         0         0
         0         0         0         0         0         0         0         0
         0         0         0         0         0         0         0         0
         0         0         0         0         0         0         0         0
         0         0         0         0         0         0         0         0
         0         0         0         0         0         0         0         0
         0         0         0         0         0         0         0         0
         0         0         0         0         0         0         0         0
         0         0         0         0         0         0         0         0
         0         0         0         0         0         0         0         0
         0         0         0         0         0         0         0         0
         0         0         0         0         0         0         0         0
         0         0         0         0         0         0         0         0
         0         0         0         0         0         0         0         0
         0         0         0         0         0         0         0         0
         0         0         0         0         0         0         0         0
         0         0         0         0         0         0         0         0
         0         0         0         0         0         0         0         0
         0         0         0         0         0         0         0         0
         0         0         0         0         0         0         0         0
         0         0         0         0         0         0         0         0
         0         0         0         0         0         0         0         0
         0         0         0         0         0         0         0         0
         0         0         0         0         0         0         0         0
         0         0         0         0         0         0         0         0
         0         0         0         0         0         0         0         0
         0         0         0         0         0         0         0         0
         0         0         0         0         0         0         0         0
         0         0         0         0         0         0         0         0
         0         0         0         0         0         0         0         0
         0         0         0         0         0         0         0         0
         0         0         0         0         0         0         0         0
         0         0         0         0         0         0         0         0
         0         0         0         0         0         0         0         0
         0         0         0         0         0         0         0         0
         0         0         0         0         0         0         0         0
         0         0         0         0         0         0         0         0
         0         0         0         0         0         0         0         0
         0         0         0         0         0         0         0         0
         0         0         0         0         0         0         0         0
         0         0         0         0         0         0         0         0
         0         0         0         0         0         0         0         0
         0         0         0         0         0         0         0         0
         0         0         0         0         0         0         0         0
         0         0         0         0         0         0         0         0
         0         0         0         0         0         0         0         0
         0         0         0         0         0         0         0         0
         0         0         0         0         0         0         0         0
         0         0         0         0         0         0         0         0
         0         0         0         0         0         0         0         0
         0         0         0         0         0         0         0         0
         0         0         0         0         0         0         0         0
         0         0         0         0         0         0         0         0
         0         0         0         0         0         0         0         0
         0         0         0         0         0         0         0         0
         0         0         0         0         0         0         0         0
         0         0         0         0         0         0         0         0
         0         0         0         0         0         0         0         0
         0         0         0         0         0         0         0         0
         0         0         0         0         0         0         0         0
         0         0         0         0         0         0         0         0
         0         0         0         0         0         0         0         0
         0         0         0         0         0         0         0         0
         0         0         0         0         0         0         0         0
         0         0         0         0         0         0         0         0
         0         0         0         0         0         0         0         0
         0         0         0         0         0         0         0         0
         0         0         0         0         0         0         0         0
         0         0         0         0         0         0         0         0
         0         0         0         0         0         0         0         0
         0         0         0         0         0         0         0         0
         0         0         0         0         0         0         0         0
         0         0         0         0         0         0         0         0
         0         0         0         0         0         0         0         0
         0         0         0         0         0         0         0         0
         0         0         0         0         0         0         0         0
         0         0         0         0         0         0         0         0
         0         0         0         0         0         0         0         0
         0         0         0         0         0         0         0         0
         0         0         0         0         0         0         0         0
         0         0         0         0         0         0         0         0
         0         0         0         0         0         0         0         0
         0         0         0         0         0         0         0         0
         0         0         0         0         0         0         0         0
         0         0         0         0         0         0         0         0
         0         0         0         0         0         0         0         0
         0         0         0         0         0         0         0         0
         0         0         0         0         0         0         0         0
         0         0         0         0         0         0         0         0
         0         0         0         0         0         0         0         0
         0         0         0         0         0         0         0         0
         0         0         0         0         0         0         0         0
         0         0         0         0         0         0         0         0
         0         0         0         0         0         0         0         0
         0         0         0         0         0         0         0         0
         0         0         0         0         0         0         0         0
         0         0         0         0         0         0         0         0
         0         0         0         0         0         0         0         0
         0         0         0         0         0         0         0         0
         0         0         0         0         0         0         0         0
         0         0         0         0         0         0         0         0
         0         0         0         0         0         0         0         0
         0         0         0         0         0         0         0         0
         0         0         0         0         0         0         0         0
         0         0         0         0         0         0         0         0
         0         0         0         0         0         0         0         0
         0         0         0         0         0         0         0         0
         0         0         0         0         0         0         0         0
         0         0         0         0         0         0         0         0
         0         0         0         0         0         0         0         0
         0         0         0         0         0         0         0         0
         0         0         0         0         0         0         0         0
         0         0         0         0         0         0         0         0
         0         0         0         0         0         0         0         0
         0         0         0         0         0         0         0         0
         0         0         0         0         0         0         0         0
         0         0         0         0         0         0         0         0
         0         0         0         0         0         0         0         0
         0         0         0         0         0         0         0         0
         0         0         0         0         0         0         0         0
         0         0         0         0         0         0         0         0
         0         0         0         0         0         0         0         0
         0         0         0         0         0         0         0         0
         0         0         0         0         0         0         0         0
         0         0         0         0         0         0         0         0
         0         0         0         0         0         0         0         0
         0         0         0         0         0         0         0         0
         0         0         0         0         0         0         0         0
         0         0         0         0         0         0         0         0
         0         0         0         0         0         0         0         0
         0         0         0         0         0         0         0         0
         0         0         0         0         0         0         0         0
         0         0         0         0         0         0         0         0
         0         0         0         0         0         0         0         0
         0         0         0         0         0         0         0         0
         0         0         0         0         0         0         0         0
         0         0         0         0         0         0         0         0
         0         0         0         0         0         0         0         0
         0         0         0         0         0         0         0         0
         0         0         0         0         0         0         0         0
         0         0         0         0         0         0         0         0
         0         0         0         0         0         0         0         0
         0         0         0         0         0         0         0         0
         0         0         0         0         0         0         0         0
         0         0         0         0         0         0         0         0
         0         0         0         0         0         0         0         0
         0         0         0         0         0         0         0         0
         0         0         0         0         0         0         0         0
         0         0         0         0         0         0         0         0
         0         0         0         0         0         0         0         0
         0         0         0         0         0         0         0         0
         0         0         0         0         0         0         0         0
         0         0         0         0         0         0         0         0
         0         0         0         0         0         0         0         0
         0         0         0         0         0         0         0         0
         0         0         0         0         0         0         0         0
         0         0         0         0         0         0         0         0
         0         0         0         0         0         0         0         0
         0         0         0         0         0         0         0         0
         0         0         0         0         0         0         0         0
         0         0         0         0         0         0         0         0
         0         0         0         0         0         0         0         0
         0         0         0         0         0         0         0         0
         0         0         0         0         0         0         0         0
         0         0         0         0         0         0         0         0
         0         0         0         0         0         0         0         0
         0         0         0         0         0         0         0         0
         0         0         0         0         0         0         0         0
         0         0         0         0         0         0         0         0
         0         0         0         0         0         0         0         0
         0         0         0         0         0         0         0         0
         0         0         0         0         0         0         0         0
         0         0         0         0         0         0         0         0
         0         0         0         0         0         0         0         0
         0         0         0         0         0         0         0         0
         0         0         0         0         0         0         0         0
         0         0         0         0         0         0         0         0
         0         0         0         0         0         0         0         0
         0         0         0         0         0         0         0         0
         0         0         0         0         0         0         0         0
         0         0         0         0         0         0         0         0
         0         0         0         0         0         0         0         0
         0         0         0         0         0         0         0         0
         0         0         0         0         0         0         0         0
         0         0         0         0         0         0         0         0
         0         0         0         0         0         0         0         0
         0         0         0         0         0         0         0         0
         0         0         0         0         0         0         0         0
         0         0         0         0         0         0         0         0
         0         0         0         0         0         0         0         0
         0         0         0         0         0         0         0         0
         0         0         0         0         0         0         0         0
         0         0         0         0         0         0         0         0
         0         0         0         0         0         0         0         0
         0         0         0         0         0         0         0         0
         0         0         0         0         0         0         0         0
         0         0         0         0         0         0         0         0
         0         0         0         0         0         0         0         0
         0         0         0         0         0         0         0         0
         0         0         0         0         0         0         0         0
         0         0         0         0         0         0         0         0
         0         0         0         0         0         0         0         0
         0         0         0         0         0         0         0         0
         0         0         0         0         0         0         0         0
         0         0         0         0         0         0         0         0
         0         0         0         0         0         0         0         0
         0         0         0         0         0         0         0         0
         0         0         0         0         0         0         0         0
         0         0         0         0         0         0         0         0
         0         0         0         0         0         0         0         0
         0         0         0         0         0         0         0         0
         0         0         0         0         0         0         0         0
         0         0         0         0         0         0         0         0
         0         0         0         0         0         0         0         0
         0         0         0         0         0         0         0         0
         0         0         0         0         0         0         0         0
         0         0         0         0         0         0         0         0
         0         0         0         0         0         0         0         0
         0         0         0         0         0         0         0         0
         0         0         0         0         0         0         0         0
         0         0         0         0         0         0         0         0
         0         0         0         0         0         0         0         0
         0         0         0         0         0         0         0         0
         0         0         0         0         0         0         0         0
         0         0         0         0         0         0         0         0
         0         0         0         0         0         0         0         0
         0         0         0         0         0         0         0         0
         0         0         0         0         0         0         0         0
         0         0         0         0         0         0         0         0
         0         0         0         0         0         0         0         0
         0         0         0         0         0         0         0         0
         0         0         0         0         0         0         0         0
         0         0         0         0         0         0         0         0
         0         0         0         0         0         0         0         0
         0         0         0         0         0         0         0         0
         0         0         0         0         0         0         0         0
         0         0         0         0         0         0         0         0
         0         0         0         0         0         0         0         0
         0         0         0         0         0         0         0         0
         0         0         0         0         0         0         0         0
         0         0         0         0         0         0         0         0
         0         0         0         0         0         0         0         0
         0         0         0         0         0         0         0         0
         0         0         0         0         0         0         0         0
         0         0         0         0         0         0         0         0
         0         0         0         0         0         0         0         0
         0         0         0         0         0         0         0         0
         0         0         0         0         0         0         0         0
         0         0         0         0         0         0         0         0
         0         0         0         0         0         0         0         0
         0         0         0         0         0         0         0         0
         0         0         0         0         0         0         0         0
         0         0         0         0         0         0         0         0
         0         0         0         0         0         0         0         0
         0         0         0         0         0         0         0         0
         0         0         0         0         0         0         0         0
         0         0         0         0         0         0         0         0
         0         0         0         0         0         0         0         0
         0         0         0         0         0         0         0         0
         0         0         0         0         0         0         0         0
         0         0         0         0         0         0         0         0
         0         0         0         0         0         0         0         0
         0         0         0         0         0         0         0         0
         0         0         0         0         0         0         0         0
         0         0         0         0         0         0         0         0
         0         0         0         0         0         0         0         0
         0         0         0         0         0         0         0         0
         0         0         0         0         0         0         0         0
         0         0         0         0         0         0         0         0
         0         0         0         0         0         0         0         0
         0         0         0         0         0         0         0         0
         0         0         0         0         0         0         0         0
         0         0         0         0         0         0         0         0
         0         0         0         0         0         0         0         0
         0         0         0         0         0         0         0         0
         0         0         0         0         0         0         0         0
         0         0         0         0         0         0         0         0
         0         0         0         0         0         0         0         0
         0         0         0         0         0         0         0         0
         0         0         0         0         0         0         0         0
         0         0         0         0         0         0         0         0
         0         0         0         0         0         0         0         0
         0         0         0         0         0         0         0         0
         0         0         0         0         0         0         0         0
         0         0         0         0         0         0         0         0
         0         0         0         0         0         0         0         0
         0         0         0         0         0         0         0         0
         0         0         0         0         0         0         0         0
         0         0         0         0         0         0         0         0
         0         0         0         0         0         0         0         0
         0         0         0         0         0         0         0         0
         0         0         0         0         0         0         0         0
         0         0         0         0         0         0         0         0
         0         0         0         0         0         0         0         0
         0         0         0         0         0         0         0         0
         0         0         0         0         0         0         0         0
         0         0         0         0         0         0         0         0
         0         0         0         0         0         0         0         0
         0         0         0         0         0         0         0         0
         0         0         0         0         0         0         0         0
         0         0         0         0         0         0         0         0
         0         0         0         0         0         0         0         0
         0         0         0         0         0         0         0         0
         0         0         0         0         0         0         0         0
         0         0         0         0         0         0         0         0
         0         0         0         0         0         0         0         0
         0         0         0         0         0         0         0         0
         0         0         0         0         0         0         0         0
         0         0         0         0         0         0         0         0
         0         0         0         0         0         0         0         0
         0         0         0         0         0         0         0         0
         0         0         0         0         0         0         0         0
         0         0         0         0         0         0         0         0
         0         0         0         0         0         0         0         0
         0         0         0         0         0         0         0         0
         0         0         0         0         0         0         0         0
         0         0         0         0         0         0         0         0
         0         0         0         0         0         0         0         0
         0         0         0         0         0         0         0         0
         0         0         0         0         0         0         0         0
         0         0         0         0         0         0         0         0
         0         0         0         0         0         0         0         0
         0         0         0         0         0         0         0         0
         0         0         0         0         0         0         0         0
         0         0         0         0         0         0         0         0
         0         0         0         0         0         0         0         0
         0         0         0         0         0         0         0         0
         0         0         0         0         0         0         0         0
         0         0         0         0         0         0         0         0
         0         0         0         0         0         0         0         0
         0         0         0         0         0         0         0         0
         0         0         0         0         0         0         0         0
         0         0         0         0         0         0         0         0
         0         0         0         0         0         0         0         0
         0         0         0         0         0         0         0         0
         0         0         0         0         0         0         0         0
         0         0         0         0         0         0         0         0
         0         0         0         0         0         0         0         0
         0         0         0         0         0         0         0         0
         0         0         0         0         0         0         0         0
         0         0         0         0         0         0         0         0
         0         0         0         0         0         0         0         0
         0         0         0         0         0         0         0         0
         0         0         0         0         0         0         0         0
         0         0         0         0         0         0         0         0
         0         0         0         0         0         0         0         0
         0         0         0         0         0         0         0         0
         0         0         0         0         0         0         0         0
         0         0         0         0         0         0         0         0
         0         0         0         0         0         0         0         0
         0         0         0         0         0         0         0         0
         0         0         0         0         0         0         0         0
         0         0         0         0         0         0         0         0
         0         0         0         0         0         0         0         0
         0         0         0         0         0         0         0         0
         0         0         0         0         0         0         0         0
         0         0         0         0         0         0         0         0
         0         0         0         0         0         0         0         0
         0         0         0         0         0         0         0         0
         0         0         0         0         0         0         0         0
         0         0         0         0         0         0         0         0
         0         0         0         0         0         0         0         0
         0         0         0         0         0         0         0         0
         0         0         0         0         0         0         0         0
         0         0         0         0         0         0         0         0
         0         0         0         0         0         0         0         0
         0         0         0         0         0         0         0         0
         0         0         0         0         0         0         0         0
         0         0         0         0         0         0         0         0
         0         0         0         0         0         0         0         0
         0         0         0         0         0         0         0         0
         0         0         0         0         0         0         0         0
         0         0         0         0         0         0         0         0
         0         0         0         0         0         0         0         0
         0         0         0         0         0         0         0         0
         0         0         0         0         0         0         0         0
         0         0         0         0         0         0         0         0
         0         0         0         0         0         0         0         0
         0         0         0         0         0         0         0         0
         0         0         0         0         0         0         0         0
         0         0         0         0         0         0         0         0
         0         0         0         0         0         0         0         0
         0         0         0         0         0         0         0         0
         0         0         0         0         0         0         0         0
         0         0         0         0         0         0         0         0
         0         0         0         0         0         0         0         0
         0         0         0         0         0         0         0         0
         0         0         0         0         0         0         0         0
         0         0         0         0         0         0         0         0
         0         0         0         0         0         0         0         0
         0         0         0         0         0         0         0         0
         0         0         0         0         0         0         0         0
         0         0         0         0         0         0         0         0
         0         0         0         0         0         0         0         0
         0         0         0         0         0         0         0         0
         0         0         0         0         0         0         0         0
         0         0         0         0         0         0         0         0
         0         0         0         0         0         0         0         0
         0         0         0         0         0         0         0         0
         0         0         0         0         0         0         0         0
         0         0         0         0         0         0         0         0
         0         0         0         0         0         0         0         0
         0         0         0         0         0         0         0         0
         0         0         0         0         0         0         0         0
         0         0         0         0         0         0         0         0
         0         0         0         0         0         0         0         0
         0         0         0         0         0         0         0         0
         0         0         0         0         0         0         0         0
         0         0         0         0         0         0         0         0
         0         0         0         0         0         0         0         0
         0         0         0         0         0         0         0         0
         0         0         0         0         0         0         0         0
         0         0         0         0         0         0         0         0
         0         0         0         0         0         0         0         0
         0         0         0         0         0         0         0         0
         0         0         0         0         0         0         0         0
         0         0         0         0         0         0         0         0
         0         0         0         0         0         0         0         0
         0         0         0         0         0         0         0         0
         0         0         0         0         0         0         0         0
         0         0         0         0         0         0         0         0
         0         0         0         0         0         0         0         0
         0         0         0         0         0         0         0         0
         0         0         0         0         0         0         0         0
         0         0         0         0         0         0         0         0
         0         0         0         0         0         0         0         0
         0         0         0         0         0         0         0         0
         0         0         0         0         0         0         0         0
         0         0         0         0         0         0         0         0
         0         0         0         0         0         0         0         0
         0         0         0         0         0         0         0         0
         0         0         0         0         0         0         0         0
         0         0         0         0         0         0         0         0
         0         0         0         0         0         0         0         0
         0         0         0         0         0         0         0         0
         0         0         0         0         0         0         0         0
         0         0         0         0         0         0         0         0
         0         0         0         0         0         0         0         0
         0         0         0         0         0         0         0         0
         0         0         0         0         0         0         0         0
         0         0         0         0         0         0         0         0
         0         0         0         0         0         0         0         0
         0         0         0         0         0         0         0         0
         0         0         0         0         0         0         0         0
         0         0         0         0         0         0         0         0
         0         0         0         0         0         0         0         0
         0         0         0         0         0         0         0         0
         0         0         0         0         0         0         0         0
         0         0         0         0         0         0         0         0
         0         0         0         0         0         0         0         0
         0         0         0         0         0         0         0         0
         0         0         0         0         0         0         0         0
         0         0         0         0         0         0         0         0
         0         0         0         0         0         0         0         0
         0         0         0         0         0         0         0         0
         0         0         0         0         0         0         0         0
         0         0         0         0         0         0         0         0
         0         0         0         0         0         0         0         0
         0         0         0         0         0         0         0         0
         0         0         0         0         0         0         0         0
         0         0         0         0         0         0         0         0
         0         0         0         0         0         0         0         0
         0         0         0         0         0         0         0         0
         0         0         0         0         0         0         0         0
         0         0         0         0         0         0         0         0
         0         0         0         0         0         0         0         0
         0         0         0         0         0         0         0         0
         0         0         0         0         0         0         0         0
         0         0         0         0         0         0         0         0
         0         0

       1       0 !NGRP
         0         0         0

